# vtk DataFile Version 5.1
vtk output
ASCII
DATASET POLYDATA
POINTS 6320 float
0 -5 0 0 -4.55 0 0.05 -4.55 0.00782172 
0.05 -5 0.00782172 0.05 -5 0.00782172 0.05 -4.55 0.00782172 
0.1 -4.55 0.0154509 0.1 -5 0.0154509 0.1 -5 0.0154509 
0.1 -4.55 0.0154509 0.15 -4.55 0.0226995 0.15 -5 0.0226995 
0.15 -5 0.0226995 0.15 -4.55 0.0226995 0.2 -4.55 0.0293893 
0.2 -5 0.0293893 0.2 -5 0.0293893 0.2 -4.55 0.0293893 
0.25 -4.55 0.0353553 0.25 -5 0.0353553 0.25 -5 0.0353553 
0.25 -4.55 0.0353553 0.3 -4.55 0.0404508 0.3 -5 0.0404508 
0.3 -5 0.0404508 0.3 -4.55 0.0404508 0.35 -4.55 0.0445503 
0.35 -5 0.0445503 0.35 -5 0.0445503 0.35 -4.55 0.0445503 
0.4 -4.55 0.0475528 0.4 -5 0.0475528 0.4 -5 0.0475528 
0.4 -4.55 0.0475528 0.45 -4.55 0.0493844 0.45 -5 0.0493844 
0.45 -5 0.0493844 0.45 -4.55 0.0493844 0.5 -4.55 0.05 
0.5 -5 0.05 0.5 -5 0.05 0.5 -4.55 0.05 
0.55 -4.55 0.0493844 0.55 -5 0.0493844 0.55 -5 0.0493844 
0.55 -4.55 0.0493844 0.6 -4.55 0.0475528 0.6 -5 0.0475528 
0.6 -5 0.0475528 0.6 -4.55 0.0475528 0.65 -4.55 0.0445503 
0.65 -5 0.0445503 0.65 -5 0.0445503 0.65 -4.55 0.0445503 
0.7 -4.55 0.0404508 0.7 -5 0.0404508 0.7 -5 0.0404508 
0.7 -4.55 0.0404508 0.75 -4.55 0.0353553 0.75 -5 0.0353553 
0.75 -5 0.0353553 0.75 -4.55 0.0353553 0.8 -4.55 0.0293893 
0.8 -5 0.0293893 0.8 -5 0.0293893 0.8 -4.55 0.0293893 
0.85 -4.55 0.0226995 0.85 -5 0.0226995 0.85 -5 0.0226995 
0.85 -4.55 0.0226995 0.9 -4.55 0.0154509 0.9 -5 0.0154509 
0.9 -5 0.0154509 0.9 -4.55 0.0154509 0.95 -4.55 0.00782172 
0.95 -5 0.00782172 0.95 -5 0.00782172 0.95 -4.55 0.00782172 
1 -4.55 6.12323e-18 1 -5 6.12323e-18 0 -4.55 0 
0 -4.1 0 0.05 -4.1 0.00782172 0.05 -4.55 0.00782172 
0.05 -4.55 0.00782172 0.05 -4.1 0.00782172 0.1 -4.1 0.0154509 
0.1 -4.55 0.0154509 0.1 -4.55 0.0154509 0.1 -4.1 0.0154509 
0.15 -4.1 0.0226995 0.15 -4.55 0.0226995 0.15 -4.55 0.0226995 
0.15 -4.1 0.0226995 0.2 -4.1 0.0293893 0.2 -4.55 0.0293893 
0.2 -4.55 0.0293893 0.2 -4.1 0.0293893 0.25 -4.1 0.0353553 
0.25 -4.55 0.0353553 0.25 -4.55 0.0353553 0.25 -4.1 0.0353553 
0.3 -4.1 0.0404508 0.3 -4.55 0.0404508 0.3 -4.55 0.0404508 
0.3 -4.1 0.0404508 0.35 -4.1 0.0445503 0.35 -4.55 0.0445503 
0.35 -4.55 0.0445503 0.35 -4.1 0.0445503 0.4 -4.1 0.0475528 
0.4 -4.55 0.0475528 0.4 -4.55 0.0475528 0.4 -4.1 0.0475528 
0.45 -4.1 0.0493844 0.45 -4.55 0.0493844 0.45 -4.55 0.0493844 
0.45 -4.1 0.0493844 0.5 -4.1 0.05 0.5 -4.55 0.05 
0.5 -4.55 0.05 0.5 -4.1 0.05 0.55 -4.1 0.0493844 
0.55 -4.55 0.0493844 0.55 -4.55 0.0493844 0.55 -4.1 0.0493844 
0.6 -4.1 0.0475528 0.6 -4.55 0.0475528 0.6 -4.55 0.0475528 
0.6 -4.1 0.0475528 0.65 -4.1 0.0445503 0.65 -4.55 0.0445503 
0.65 -4.55 0.0445503 0.65 -4.1 0.0445503 0.7 -4.1 0.0404508 
0.7 -4.55 0.0404508 0.7 -4.55 0.0404508 0.7 -4.1 0.0404508 
0.75 -4.1 0.0353553 0.75 -4.55 0.0353553 0.75 -4.55 0.0353553 
0.75 -4.1 0.0353553 0.8 -4.1 0.0293893 0.8 -4.55 0.0293893 
0.8 -4.55 0.0293893 0.8 -4.1 0.0293893 0.85 -4.1 0.0226995 
0.85 -4.55 0.0226995 0.85 -4.55 0.0226995 0.85 -4.1 0.0226995 
0.9 -4.1 0.0154509 0.9 -4.55 0.0154509 0.9 -4.55 0.0154509 
0.9 -4.1 0.0154509 0.95 -4.1 0.00782172 0.95 -4.55 0.00782172 
0.95 -4.55 0.00782172 0.95 -4.1 0.00782172 1 -4.1 6.12323e-18 
1 -4.55 6.12323e-18 0 -4.1 0 0 -3.65 0 
0.05 -3.65 0.00782172 0.05 -4.1 0.00782172 0.05 -4.1 0.00782172 
0.05 -3.65 0.00782172 0.1 -3.65 0.0154509 0.1 -4.1 0.0154509 
0.1 -4.1 0.0154509 0.1 -3.65 0.0154509 0.15 -3.65 0.0226995 
0.15 -4.1 0.0226995 0.15 -4.1 0.0226995 0.15 -3.65 0.0226995 
0.2 -3.65 0.0293893 0.2 -4.1 0.0293893 0.2 -4.1 0.0293893 
0.2 -3.65 0.0293893 0.25 -3.65 0.0353553 0.25 -4.1 0.0353553 
0.25 -4.1 0.0353553 0.25 -3.65 0.0353553 0.3 -3.65 0.0404508 
0.3 -4.1 0.0404508 0.3 -4.1 0.0404508 0.3 -3.65 0.0404508 
0.35 -3.65 0.0445503 0.35 -4.1 0.0445503 0.35 -4.1 0.0445503 
0.35 -3.65 0.0445503 0.4 -3.65 0.0475528 0.4 -4.1 0.0475528 
0.4 -4.1 0.0475528 0.4 -3.65 0.0475528 0.45 -3.65 0.0493844 
0.45 -4.1 0.0493844 0.45 -4.1 0.0493844 0.45 -3.65 0.0493844 
0.5 -3.65 0.05 0.5 -4.1 0.05 0.5 -4.1 0.05 
0.5 -3.65 0.05 0.55 -3.65 0.0493844 0.55 -4.1 0.0493844 
0.55 -4.1 0.0493844 0.55 -3.65 0.0493844 0.6 -3.65 0.0475528 
0.6 -4.1 0.0475528 0.6 -4.1 0.0475528 0.6 -3.65 0.0475528 
0.65 -3.65 0.0445503 0.65 -4.1 0.0445503 0.65 -4.1 0.0445503 
0.65 -3.65 0.0445503 0.7 -3.65 0.0404508 0.7 -4.1 0.0404508 
0.7 -4.1 0.0404508 0.7 -3.65 0.0404508 0.75 -3.65 0.0353553 
0.75 -4.1 0.0353553 0.75 -4.1 0.0353553 0.75 -3.65 0.0353553 
0.8 -3.65 0.0293893 0.8 -4.1 0.0293893 0.8 -4.1 0.0293893 
0.8 -3.65 0.0293893 0.85 -3.65 0.0226995 0.85 -4.1 0.0226995 
0.85 -4.1 0.0226995 0.85 -3.65 0.0226995 0.9 -3.65 0.0154509 
0.9 -4.1 0.0154509 0.9 -4.1 0.0154509 0.9 -3.65 0.0154509 
0.95 -3.65 0.00782172 0.95 -4.1 0.00782172 0.95 -4.1 0.00782172 
0.95 -3.65 0.00782172 1 -3.65 6.12323e-18 1 -4.1 6.12323e-18 
0 -3.65 0 0 -3.2 0 0.05 -3.2 0.00782172 
0.05 -3.65 0.00782172 0.05 -3.65 0.00782172 0.05 -3.2 0.00782172 
0.1 -3.2 0.0154509 0.1 -3.65 0.0154509 0.1 -3.65 0.0154509 
0.1 -3.2 0.0154509 0.15 -3.2 0.0226995 0.15 -3.65 0.0226995 
0.15 -3.65 0.0226995 0.15 -3.2 0.0226995 0.2 -3.2 0.0293893 
0.2 -3.65 0.0293893 0.2 -3.65 0.0293893 0.2 -3.2 0.0293893 
0.25 -3.2 0.0353553 0.25 -3.65 0.0353553 0.25 -3.65 0.0353553 
0.25 -3.2 0.0353553 0.3 -3.2 0.0404508 0.3 -3.65 0.0404508 
0.3 -3.65 0.0404508 0.3 -3.2 0.0404508 0.35 -3.2 0.0445503 
0.35 -3.65 0.0445503 0.35 -3.65 0.0445503 0.35 -3.2 0.0445503 
0.4 -3.2 0.0475528 0.4 -3.65 0.0475528 0.4 -3.65 0.0475528 
0.4 -3.2 0.0475528 0.45 -3.2 0.0493844 0.45 -3.65 0.0493844 
0.45 -3.65 0.0493844 0.45 -3.2 0.0493844 0.5 -3.2 0.05 
0.5 -3.65 0.05 0.5 -3.65 0.05 0.5 -3.2 0.05 
0.55 -3.2 0.0493844 0.55 -3.65 0.0493844 0.55 -3.65 0.0493844 
0.55 -3.2 0.0493844 0.6 -3.2 0.0475528 0.6 -3.65 0.0475528 
0.6 -3.65 0.0475528 0.6 -3.2 0.0475528 0.65 -3.2 0.0445503 
0.65 -3.65 0.0445503 0.65 -3.65 0.0445503 0.65 -3.2 0.0445503 
0.7 -3.2 0.0404508 0.7 -3.65 0.0404508 0.7 -3.65 0.0404508 
0.7 -3.2 0.0404508 0.75 -3.2 0.0353553 0.75 -3.65 0.0353553 
0.75 -3.65 0.0353553 0.75 -3.2 0.0353553 0.8 -3.2 0.0293893 
0.8 -3.65 0.0293893 0.8 -3.65 0.0293893 0.8 -3.2 0.0293893 
0.85 -3.2 0.0226995 0.85 -3.65 0.0226995 0.85 -3.65 0.0226995 
0.85 -3.2 0.0226995 0.9 -3.2 0.0154509 0.9 -3.65 0.0154509 
0.9 -3.65 0.0154509 0.9 -3.2 0.0154509 0.95 -3.2 0.00782172 
0.95 -3.65 0.00782172 0.95 -3.65 0.00782172 0.95 -3.2 0.00782172 
1 -3.2 6.12323e-18 1 -3.65 6.12323e-18 0 -3.2 0 
0 -2.75 0 0.05 -2.75 0.00782172 0.05 -3.2 0.00782172 
0.05 -3.2 0.00782172 0.05 -2.75 0.00782172 0.1 -2.75 0.0154509 
0.1 -3.2 0.0154509 0.1 -3.2 0.0154509 0.1 -2.75 0.0154509 
0.15 -2.75 0.0226995 0.15 -3.2 0.0226995 0.15 -3.2 0.0226995 
0.15 -2.75 0.0226995 0.2 -2.75 0.0293893 0.2 -3.2 0.0293893 
0.2 -3.2 0.0293893 0.2 -2.75 0.0293893 0.25 -2.75 0.0353553 
0.25 -3.2 0.0353553 0.25 -3.2 0.0353553 0.25 -2.75 0.0353553 
0.3 -2.75 0.0404508 0.3 -3.2 0.0404508 0.3 -3.2 0.0404508 
0.3 -2.75 0.0404508 0.35 -2.75 0.0445503 0.35 -3.2 0.0445503 
0.35 -3.2 0.0445503 0.35 -2.75 0.0445503 0.4 -2.75 0.0475528 
0.4 -3.2 0.0475528 0.4 -3.2 0.0475528 0.4 -2.75 0.0475528 
0.45 -2.75 0.0493844 0.45 -3.2 0.0493844 0.45 -3.2 0.0493844 
0.45 -2.75 0.0493844 0.5 -2.75 0.05 0.5 -3.2 0.05 
0.5 -3.2 0.05 0.5 -2.75 0.05 0.55 -2.75 0.0493844 
0.55 -3.2 0.0493844 0.55 -3.2 0.0493844 0.55 -2.75 0.0493844 
0.6 -2.75 0.0475528 0.6 -3.2 0.0475528 0.6 -3.2 0.0475528 
0.6 -2.75 0.0475528 0.65 -2.75 0.0445503 0.65 -3.2 0.0445503 
0.65 -3.2 0.0445503 0.65 -2.75 0.0445503 0.7 -2.75 0.0404508 
0.7 -3.2 0.0404508 0.7 -3.2 0.0404508 0.7 -2.75 0.0404508 
0.75 -2.75 0.0353553 0.75 -3.2 0.0353553 0.75 -3.2 0.0353553 
0.75 -2.75 0.0353553 0.8 -2.75 0.0293893 0.8 -3.2 0.0293893 
0.8 -3.2 0.0293893 0.8 -2.75 0.0293893 0.85 -2.75 0.0226995 
0.85 -3.2 0.0226995 0.85 -3.2 0.0226995 0.85 -2.75 0.0226995 
0.9 -2.75 0.0154509 0.9 -3.2 0.0154509 0.9 -3.2 0.0154509 
0.9 -2.75 0.0154509 0.95 -2.75 0.00782172 0.95 -3.2 0.00782172 
0.95 -3.2 0.00782172 0.95 -2.75 0.00782172 1 -2.75 6.12323e-18 
1 -3.2 6.12323e-18 0 -2.75 0 0 -2.3 0 
0.05 -2.3 0.00782172 0.05 -2.75 0.00782172 0.05 -2.75 0.00782172 
0.05 -2.3 0.00782172 0.1 -2.3 0.0154509 0.1 -2.75 0.0154509 
0.1 -2.75 0.0154509 0.1 -2.3 0.0154509 0.15 -2.3 0.0226995 
0.15 -2.75 0.0226995 0.15 -2.75 0.0226995 0.15 -2.3 0.0226995 
0.2 -2.3 0.0293893 0.2 -2.75 0.0293893 0.2 -2.75 0.0293893 
0.2 -2.3 0.0293893 0.25 -2.3 0.0353553 0.25 -2.75 0.0353553 
0.25 -2.75 0.0353553 0.25 -2.3 0.0353553 0.3 -2.3 0.0404508 
0.3 -2.75 0.0404508 0.3 -2.75 0.0404508 0.3 -2.3 0.0404508 
0.35 -2.3 0.0445503 0.35 -2.75 0.0445503 0.35 -2.75 0.0445503 
0.35 -2.3 0.0445503 0.4 -2.3 0.0475528 0.4 -2.75 0.0475528 
0.4 -2.75 0.0475528 0.4 -2.3 0.0475528 0.45 -2.3 0.0493844 
0.45 -2.75 0.0493844 0.45 -2.75 0.0493844 0.45 -2.3 0.0493844 
0.5 -2.3 0.05 0.5 -2.75 0.05 0.5 -2.75 0.05 
0.5 -2.3 0.05 0.55 -2.3 0.0493844 0.55 -2.75 0.0493844 
0.55 -2.75 0.0493844 0.55 -2.3 0.0493844 0.6 -2.3 0.0475528 
0.6 -2.75 0.0475528 0.6 -2.75 0.0475528 0.6 -2.3 0.0475528 
0.65 -2.3 0.0445503 0.65 -2.75 0.0445503 0.65 -2.75 0.0445503 
0.65 -2.3 0.0445503 0.7 -2.3 0.0404508 0.7 -2.75 0.0404508 
0.7 -2.75 0.0404508 0.7 -2.3 0.0404508 0.75 -2.3 0.0353553 
0.75 -2.75 0.0353553 0.75 -2.75 0.0353553 0.75 -2.3 0.0353553 
0.8 -2.3 0.0293893 0.8 -2.75 0.0293893 0.8 -2.75 0.0293893 
0.8 -2.3 0.0293893 0.85 -2.3 0.0226995 0.85 -2.75 0.0226995 
0.85 -2.75 0.0226995 0.85 -2.3 0.0226995 0.9 -2.3 0.0154509 
0.9 -2.75 0.0154509 0.9 -2.75 0.0154509 0.9 -2.3 0.0154509 
0.95 -2.3 0.00782172 0.95 -2.75 0.00782172 0.95 -2.75 0.00782172 
0.95 -2.3 0.00782172 1 -2.3 6.12323e-18 1 -2.75 6.12323e-18 
0 -2.3 0 0 -1.85 0 0.05 -1.85 0.00782172 
0.05 -2.3 0.00782172 0.05 -2.3 0.00782172 0.05 -1.85 0.00782172 
0.1 -1.85 0.0154509 0.1 -2.3 0.0154509 0.1 -2.3 0.0154509 
0.1 -1.85 0.0154509 0.15 -1.85 0.0226995 0.15 -2.3 0.0226995 
0.15 -2.3 0.0226995 0.15 -1.85 0.0226995 0.2 -1.85 0.0293893 
0.2 -2.3 0.0293893 0.2 -2.3 0.0293893 0.2 -1.85 0.0293893 
0.25 -1.85 0.0353553 0.25 -2.3 0.0353553 0.25 -2.3 0.0353553 
[...]
CELL_DATA 1580
SCALARS CP float
LOOKUP_TABLE default
89.9487 44.5941 33.5889 28.4028 25.3924 23.4191 21.9798 20.8065 19.7414 
18.6876 17.5871 16.4084 15.1384 13.7761 12.327 10.7983 9.19229 7.49838 
5.6715 3.54963 117.08 59.1182 45.1173 38.4476 34.4753 31.7753 29.731 
28.0206 26.4575 24.9284 23.365 21.7294 20.0038 18.1838 16.2717 14.2703 
12.1757 9.96579 7.57187 4.76609 132.292 67.0321 51.2583 43.7086 39.1754 
36.0634 33.6862 31.688 29.8635 28.0887 26.2889 24.422 22.4677 20.4197 
18.2782 16.0436 13.7082 11.2431 8.5658 5.41085 142.127 72.071 55.1152 
46.9734 42.0623 38.6743 36.0769 33.8913 31.8996 29.9704 28.0244 26.0166 
23.9247 21.7407 19.4637 17.0922 14.616 12.0019 9.15852 5.79725 149.093 
75.6041 57.7941 49.2215 44.0344 40.4453 37.6881 35.3676 33.2569 31.219 
29.1714 27.0667 24.8813 22.6061 20.239 17.7772 15.2087 12.4973 9.54586 
6.05014 154.497 78.3206 59.8364 50.9215 45.5142 41.7643 38.8797 36.4521 
34.2477 32.1251 29.9991 27.8207 25.5651 23.2221 20.7888 18.2615 15.6267 
12.8461 9.81813 6.22776 159.238 80.6761 61.5864 52.3605 46.7515 42.8534 
39.8511 37.3253 35.0356 32.837 30.6419 28.3998 26.0847 23.6858 21.1991 
18.6201 15.9341 13.1011 10.0162 6.35649 164.328 83.1432 63.3697 53.7836 
47.9357 43.86 40.7166 38.074 35.6853 33.4015 31.1324 28.8256 26.4537 
24.0046 21.4732 18.8538 16.1304 13.2612 10.1392 6.43573 172.173 86.6919 
65.7259 55.4769 49.1753 44.7612 41.357 38.5122 35.9681 33.5678 31.2143 
28.8495 26.4408 23.9714 21.432 18.8132 16.096 13.2359 10.1238 6.42936 
197.263 95.2378 69.2634 56.2857 48.3149 42.8838 38.9147 35.8344 33.2979 
31.0808 29.0306 27.0413 25.0391 22.9722 20.8026 18.4989 16.0273 13.3354 
10.3102 6.61216 197.263 95.2378 69.2634 56.2857 48.3149 42.8838 38.9147 
35.8344 33.2979 31.0808 29.0306 27.0413 25.0391 22.9722 20.8026 18.4989 
16.0273 13.3354 10.3102 6.61216 172.173 86.6919 65.7259 55.4769 49.1753 
44.7612 41.357 38.5122 35.9681 33.5678 31.2143 28.8495 26.4408 23.9714 
21.432 18.8132 16.096 13.2359 10.1238 6.42936 164.328 83.1432 63.3697 
53.7836 47.9357 43.86 40.7166 38.074 35.6853 33.4015 31.1324 28.8256 
26.4537 24.0046 21.4732 18.8538 16.1304 13.2612 10.1392 6.43573 159.238 
80.6761 61.5864 52.3605 46.7515 42.8534 39.8511 37.3253 35.0356 32.837 
30.6419 28.3998 26.0847 23.6858 21.1991 18.6201 15.9341 13.1011 10.0162 
6.35649 154.497 78.3206 59.8364 50.9215 45.5142 41.7643 38.8797 36.4521 
34.2477 32.1251 29.9991 27.8207 25.5651 23.2221 20.7888 18.2615 15.6267 
12.8461 9.81813 6.22776 149.093 75.6041 57.7941 49.2215 44.0344 40.4453 
37.6881 35.3676 33.2569 31.219 29.1714 27.0667 24.8813 22.6061 20.239 
17.7772 15.2087 12.4973 9.54586 6.05014 142.127 72.071 55.1152 46.9734 
42.0623 38.6743 36.0769 33.8913 31.8996 29.9704 28.0244 26.0166 23.9247 
21.7407 19.4637 17.0922 14.616 12.0019 9.15852 5.79725 132.292 67.0321 
51.2583 43.7086 39.1754 36.0634 33.6862 31.688 29.8635 28.0887 26.2889 
24.422 22.4677 20.4197 18.2782 16.0436 13.7082 11.2431 8.5658 5.41085 
117.08 59.1182 45.1173 38.4476 34.4753 31.7753 29.731 28.0206 26.4575 
24.9284 23.365 21.7294 20.0038 18.1838 16.2717 14.2703 12.1757 9.96579 
7.57187 4.76609 89.9487 44.5941 33.5889 28.4028 25.3924 23.4191 21.9798 
20.8065 19.7414 18.6876 17.5871 16.4084 15.1384 13.7761 12.327 10.7983 
9.19229 7.49838 5.6715 3.54963 51.9162 22.3174 14.4373 10.4442 7.96052 
6.22482 4.90068 3.80459 2.8067 1.75112 64.7608 29.5285 20.0795 15.0805 
11.7998 9.38736 7.46633 5.82336 4.29606 2.66997 71.3411 33.1136 22.9092 
17.4775 13.8623 11.1533 8.95096 7.02892 5.21037 3.24809 75.2902 35.222 
24.5577 18.8737 15.0717 12.2002 9.8429 7.76365 5.77564 3.61045 77.812 
36.5519 25.5891 19.7437 15.8247 12.8533 10.4016 8.22632 6.13386 3.84165 
79.4634 37.4166 26.2563 20.3046 16.3094 13.2736 10.7615 8.52504 6.36583 
3.99192 80.5463 37.9817 26.6911 20.6695 16.6243 13.5467 10.9954 8.71944 
6.51705 4.09009 81.2385 38.3424 26.9685 20.9021 16.8251 13.7208 11.1447 
8.84359 6.61375 4.15296 81.6481 38.556 27.1327 21.0399 16.9441 13.8241 
11.2333 8.91731 6.67122 4.19037 81.8383 38.6553 27.2091 21.104 16.9995 
13.8721 11.2745 8.95166 6.69802 4.20783 81.8383 38.6553 27.2091 21.104 
16.9995 13.8721 11.2745 8.95166 6.69802 4.20783 81.6481 38.556 27.1327 
21.0399 16.9441 13.8241 11.2333 8.91731 6.67122 4.19037 81.2385 38.3424 
26.9685 20.9021 16.8251 13.7208 11.1447 8.84359 6.61375 4.15296 80.5463 
37.9817 26.6911 20.6695 16.6243 13.5467 10.9954 8.71944 6.51705 4.09009 
79.4634 37.4166 26.2563 20.3046 16.3094 13.2736 10.7615 8.52504 6.36583 
3.99192 77.812 36.5519 25.5891 19.7437 15.8247 12.8533 10.4016 8.22632 
6.13386 3.84165 75.2902 35.222 24.5577 18.8737 15.0717 12.2002 9.8429 
7.76365 5.77564 3.61045 71.3411 33.1136 22.9092 17.4775 13.8623 11.1533 
8.95096 7.02892 5.21037 3.24809 64.7608 29.5285 20.0795 15.0805 11.7998 
9.38736 7.46633 5.82336 4.29606 2.66997 51.9162 22.3174 14.4373 10.4442 
7.96052 6.22482 4.90068 3.80459 2.8067 1.75112 8.90205e-15 3.1754e-15 7.81593e-15 
7.26843e-15 6.14798e-15 7.49219e-15 6.15605e-15 9.45854e-15 7.45621e-15 9.8998e-15 1.6401e-14 8.96018e-15 
7.0859e-15 5.70131e-15 5.13006e-15 3.08371e-15 5.33215e-15 1.52398e-15 3.04383e-15 1.05657e-15 1.88168e-14 
9.48227e-15 7.44392e-15 7.9851e-15 5.33229e-15 3.14842e-15 2.10597e-15 2.94355e-15 2.66596e-15 1.29079e-15 
2.28845e-14 1.36581e-14 8.46229e-15 4.21151e-15 4.30422e-15 6.05373e-15 5.25422e-15 2.6139e-15 5.51101e-16 
2.84964e-15 2.67227e-14 1.52945e-14 1.18317e-14 9.49402e-15 5.1576e-15 5.52121e-15 7.33748e-15 5.82067e-15 
3.92512e-15 2.29157e-15 3.29594e-14 1.9364e-14 1.27935e-14 1.10953e-14 1.19046e-14 1.601e-14 4.26818e-15 
5.52935e-15 3.2268e-15 1.0511e-15 4.64465e-14 2.64217e-14 1.91463e-14 1.93799e-14 1.17638e-14 1.0063e-14 
1.14237e-14 9.61602e-15 6.73203e-15 4.58551e-15 6.50228e-14 3.69248e-14 2.53153e-14 2.67943e-14 2.4833e-14 
1.92459e-14 1.11064e-14 1.37948e-14 1.30089e-14 1.28447e-14 9.98147e-14 5.68577e-14 3.81126e-14 4.43511e-14 
2.8216e-14 3.42529e-14 2.01963e-14 2.08482e-14 1.62951e-14 9.22443e-15 1.71105e-13 9.35864e-14 6.97846e-14 
6.12899e-14 4.38229e-14 4.52007e-14 4.01997e-14 3.7319e-14 2.47556e-15 1.75015e-14 6.91551e-16 6.50005e-16 
3.33599e-15 6.48013e-16 2.36188e-15 4.93643e-16 1.75096e-16 1.62619e-15 1.25525e-15 3.98335e-15 3.2723e-15 
8.94453e-16 3.16008e-15 1.342e-15 8.28336e-15 4.72684e-15 2.21141e-15 9.17855e-15 9.94228e-15 5.45773e-16 
2.64111e-16 1.98628e-15 8.21206e-15 1.46586e-15 8.96205e-17 1.82192e-14 2.21433e-15 7.05416e-16 1.63896e-14 
2.71939e-15 8.78988e-15 1.38109e-14 8.14348e-15 5.38801e-15 1.09642e-14 3.55358e-15 7.01495e-15 2.79888e-15 
7.09551e-15 6.30764e-15 1.44238e-15 9.80624e-15 7.98298e-15 5.03843e-15 1.30998e-14 9.06885e-15 1.48604e-14 
4.39094e-15 1.55028e-14 2.83668e-14 1.08394e-14 3.90802e-14 1.46261e-14 7.79164e-15 9.6475e-15 2.6736e-14 
3.77296e-15 2.75303e-14 2.58644e-15 1.374e-14 1.05204e-14 1.02781e-15 1.22204e-14 1.30093e-15 1.29899e-14 
1.35644e-14 5.66476e-15 3.33157e-14 9.01159e-15 6.80792e-15 3.80058e-15 7.88738e-15 7.7157e-15 1.34256e-14 
3.27816e-14 1.19348e-15 1.93435e-14 4.38257e-14 1.13744e-14 2.02971e-14 2.03867e-14 1.01555e-14 5.00386e-14 
2.76793e-14 2.95042e-14 3.29288e-14 5.60221e-14 1.48381e-14 5.42036e-14 4.09386e-14 7.41147e-14 1.954e-14 
9.63222e-15 2.16685e-14 9.98994e-15 1.30005e-14 1.58975e-14 4.97838e-15 7.82229e-15 2.35044e-14 2.2261e-14 
3.59093e-15 2.86924e-14 3.55102e-15 6.79324e-15 1.25934e-14 1.24106e-14 3.27089e-14 3.39571e-14 7.73606e-15 
4.2003e-14 4.4635e-15 1.91462e-14 1.21757e-14 1.37586e-16 5.0066e-14 9.13391e-15 2.41232e-14 3.26079e-14 
2.32568e-14 2.21917e-14 6.92516e-15 1.73643e-14 1.25054e-14 2.50913e-14 5.63253e-15 8.24211e-14 5.36552e-14 
3.12483e-14 1.02175e-14 7.53023e-14 6.32732e-14 2.04084e-14 1.2947e-14 3.90338e-14 5.56455e-14 2.18592e-14 
6.88808e-14 4.31077e-14 5.28946e-14 4.03634e-14 2.55261e-14 5.15911e-15 5.58254e-14 3.88906e-14 2.17616e-14 
7.14001e-14 2.12558e-14 3.32649e-15 3.92439e-14 4.88439e-14 4.40381e-14 3.59007e-14 1.1473e-13 6.51141e-14 
1.54447e-14 1.28862e-13 3.35383e-14 7.95543e-14 6.51196e-14 3.09568e-14 3.26678e-14 9.44383e-14 7.86385e-14 
8.8729e-14 1.50862e-13 6.18172e-14 1.49115e-14 9.72086e-14 7.02119e-14 7.491e-14 1.10767e-14 6.14946e-14 
2.42747e-15 4.21325e-14 3.63684e-14 1.60885e-14 6.75326e-14 2.24096e-14 2.22397e-14 1.48252e-14 6.53841e-14 
7.00676e-14 2.24636e-15 7.44803e-14 4.41661e-14 9.67529e-14 1.80398e-13 1.8642e-14 4.44137e-14 7.23731e-14 
3.11133e-14 6.0376e-14 3.66915e-14 2.36163e-14 1.35563e-14 5.59184e-14 7.65569e-15 6.5504e-14 1.62991e-13 
1.46797e-14 3.63056e-14 1.26955e-13 4.30881e-14 9.19726e-14 6.59381e-14 2.03617e-14 1.82241e-13 2.65136e-14 
2.22685e-14 2.92573e-14 7.85083e-14 1.16954e-13 1.17557e-13 6.2508e-14 1.17801e-13 2.90063e-14 9.6597e-14 
3.95478e-14 4.31128e-14 9.4663e-16 3.04649e-16 2.81654e-15 1.81702e-15 1.16002e-15 1.13073e-15 4.94512e-15 
2.69956e-16 4.00839e-16 3.34305e-15 3.38577e-15 1.82927e-15 2.0131e-15 3.60194e-15 4.86421e-15 3.62699e-15 
1.45335e-15 3.49515e-16 5.33337e-16 1.65918e-16 4.96909e-15 5.81725e-15 6.82278e-15 3.75107e-15 5.87667e-15 
3.42417e-15 1.2162e-16 9.72306e-15 4.32625e-15 3.3825e-15 3.61323e-15 1.07249e-15 1.42628e-15 8.90824e-15 
8.31251e-15 9.40059e-15 9.6269e-15 6.72489e-15 3.55583e-15 2.55127e-15 1.61388e-15 2.61797e-15 6.53312e-15 
1.27095e-14 1.13571e-14 1.82885e-15 1.72822e-14 1.02453e-14 1.35107e-14 1.69833e-14 1.29903e-15 4.59604e-15 
2.02579e-14 4.66636e-16 1.40598e-15 1.05426e-14 2.1667e-15 8.5588e-15 1.56218e-14 1.323e-15 8.20099e-15 
1.89902e-14 1.72476e-15 4.32689e-15 1.86146e-14 1.62082e-14 2.3819e-14 5.12319e-15 9.98598e-15 1.78329e-14 
7.94823e-15 2.1263e-14 8.13381e-15 1.1494e-14 2.30187e-14 1.27581e-14 5.90174e-15 3.92591e-14 2.92447e-16 
1.37768e-15 1.88409e-14 4.11518e-14 1.25981e-14 6.01527e-15 2.43149e-14 6.33762e-16 3.38537e-14 1.98388e-14 
1.1757e-14 1.84751e-14 1.70255e-14 1.32607e-14 2.10986e-14 2.99134e-14 4.34913e-14 1.11676e-14 1.43262e-14 
1.79627e-15 3.22396e-14 1.98131e-14 3.14849e-14 1.71717e-14 3.71504e-14 1.14383e-15 3.71174e-14 1.43228e-14 
3.01237e-14 5.26945e-14 2.14501e-15 5.20112e-14 2.69069e-14 1.01238e-13 3.2603e-14 3.58656e-14 7.14101e-14 
2.13455e-14 4.80444e-15 3.71278e-14 2.90868e-16 2.92062e-14 2.19681e-14 3.40394e-14 1.20561e-14 1.3669e-14 
3.74871e-14 2.04913e-14 4.9064e-14 1.15966e-14 5.57707e-14 1.56175e-14 7.68229e-14 2.49043e-14 1.26651e-14 
2.42075e-14 4.70162e-14 2.12794e-14 1.98141e-14 5.63899e-14 6.2209e-14 2.06818e-14 2.48647e-14 1.93405e-14 
1.40107e-14 4.13458e-14 1.813e-14 4.25613e-14 5.2548e-15 6.42505e-15 2.02434e-14 5.47381e-14 4.93942e-14 
3.59375e-14 3.04839e-14 1.80005e-14 4.07226e-14 5.18863e-14 4.90734e-14 2.58592e-15 4.47622e-14 1.47218e-14 
1.62131e-14 2.96299e-14 6.99735e-14 2.28332e-14 3.54273e-14 3.07267e-14 7.36719e-17 4.05104e-15 9.0253e-15 
1.19702e-14 3.42798e-14 3.15774e-15 4.3732e-14 4.02091e-14 2.32906e-14 6.93293e-14 1.24751e-14 8.10429e-14 
1.39388e-14 2.33672e-14 4.83476e-14 9.52732e-14 3.07912e-14 3.4511e-14 4.12082e-17 2.51538e-15 4.50499e-14 
1.20678e-14 2.80342e-14 3.82653e-14 4.60831e-14 2.30481e-14 3.19481e-14 3.66847e-14 4.39552e-14 8.50104e-15 
4.74115e-15 4.706e-14 3.85557e-14 1.90278e-14 2.30399e-14 9.87523e-14 1.48198e-13 9.55497e-14 3.79105e-15 
4.81892e-14 9.82575e-14 1.6516e-14 9.41761e-14 1.64104e-13 1.38266e-14 1.85771e-14 8.73921e-14 3.98861e-14 
9.98939e-14 1.80961e-13 1.82341e-13 1.94884e-13 8.39172e-14 2.31637e-14 36.6958 13.2306 7.90778 
5.79589 4.79225 4.26677 3.97475 3.80667 3.70873 3.65261 3.62262 3.60969 
3.60837 3.61533 3.62846 3.64643 3.66836 3.69372 3.72217 3.7535 3.78763 
3.82452 3.86422 3.9068 3.95236 4.00106 4.05306 4.10855 4.16775 4.23091 
4.29828 4.37017 4.44689 4.52878 4.61622 4.70961 4.80938 4.91603 5.03004 
5.15199 5.28247 5.42212 5.57165 5.7318 5.90341 6.08735 6.28457 6.49611 
6.72308 6.96669 7.22821 7.50905 7.81071 8.13478 8.48297 8.8571 9.25906 
9.69081 10.1544 10.6516 11.1844 11.754 12.3612 13.0054 13.6841 14.3915 
15.117 15.8433 16.546 17.1979 18.0283 18.4589 18.6158 18.5882 18.425 
18.1674 17.8482 17.4911 17.1105 16.7127 16.2971 15.8583 15.388 14.8769 
14.3173 13.7053 13.042 12.3354 11.6003 10.8561 10.1239 9.42164 8.7612 
8.14779 7.58196 7.06164 6.58365 6.14452 5.74085 5.36944 5.02737 4.71199 
4.42089 4.15191 3.9031 3.6727 3.45912 3.26094 3.07685 2.90568 2.74636 
2.59794 2.45954 2.33036 2.20967 2.09682 1.99121 1.89228 1.79953 1.71249 
1.63076 1.55394 1.48168 1.41365 1.34955 1.28911 1.23207 1.17821 1.12729 
1.07912 1.03353 0.990327 0.949366 0.910496 0.873581 0.838495 0.80512 0.773345 
0.743069 0.714197 0.686639 0.660312 0.635139 0.611046 0.587966 0.565833 0.544588 
0.524173 0.504536 0.485627 0.467396 0.449801 0.432798 0.416346 0.400409 0.384949 
0.369933 0.355328 0.341103 0.327228 0.313677 0.300422 0.287438 0.274701 0.262189 
0.249881 0.237756 0.225796 0.213982 0.202298 0.190729 0.179261 0.167882 0.156579 
0.145343 0.134166 0.12304 0.11196 0.100922 0.0899236 0.0789648 0.0680469 0.0571731 
0.0463488 0.0355812 0.0248798 0.0142559 0.00372339 0.00670208 0.0170024 0.0271574 0.0371447 
0.0469397 0.0565157 0.0658442 0.0748943 0.0836335 0.0920273 0.100039 0.107632 0.114765 
0.121397 0.127485 0.132983 0.137843 0.142014 0.145442 0.148067 0.149823 0.150635 
0.150415 0.149059 0.146435 0.142375 0.136654 0.12895 0.118778 0.105329 0.0870325 
0.0598267 36.9347 13.3168 7.95925 5.83362 4.82345 4.29455 4.00062 3.83145 
3.73287 3.67638 3.6462 3.63318 3.63186 3.63886 3.65208 3.67016 3.69224 
3.71777 3.7464 3.77793 3.81228 3.84942 3.88938 3.93223 3.97809 4.0271 
4.07944 4.13529 4.19488 4.25845 4.32626 4.39862 4.47584 4.55826 4.64627 
4.74026 4.84069 4.94803 5.06279 5.18553 5.31685 5.45741 5.60791 5.76912 
5.94184 6.12698 6.32548 6.5384 6.76685 7.01203 7.27526 7.55793 7.86155 
8.18773 8.53819 8.91475 9.31933 9.75389 10.2205 10.721 11.2572 11.8305 
12.4416 13.09 13.7732 14.4852 15.2154 15.9465 16.6537 17.3098 18.0283 
18.4589 18.6158 18.5882 18.425 18.1674 17.8482 17.4911 17.1105 16.7127 
16.2971 15.8583 15.388 14.8769 14.3173 13.7053 13.042 12.3354 11.6003 
10.8561 10.1239 9.42164 8.7612 8.14779 7.58196 7.06164 6.58365 6.14452 
5.74085 5.36944 5.02737 4.71199 4.42089 4.15191 3.9031 3.6727 3.45912 
3.26094 3.07685 2.90568 2.74636 2.59794 2.45954 2.33036 2.20967 2.09682 
1.99121 1.89228 1.79953 1.71249 1.63076 1.55394 1.48168 1.41365 1.34955 
1.28911 1.23207 1.17821 1.12729 1.07912 1.03353 0.990327 0.949366 0.910496 
0.873581 0.838495 0.80512 0.773345 0.743069 0.714197 0.686639 0.660312 0.635139 
0.611046 0.587966 0.565833 0.544588 0.524173 0.504536 0.485627 0.467396 0.449801 
0.432798 0.416346 0.400409 0.384949 0.369933 0.355328 0.341103 0.327228 0.313677 
0.300422 0.287438 0.274701 0.262189 0.249881 0.237756 0.225796 0.213982 0.202298 
0.190729 0.179261 0.167882 0.156579 0.145343 0.134166 0.12304 0.11196 0.100922 
0.0899236 0.0789648 0.0680469 0.0571731 0.0463488 0.0355812 0.0248798 0.0142559 0.00372339 
0.00670208 0.0170024 0.0271574 0.0371447 0.0469397 0.0565157 0.0658442 0.0748943 0.0836335 
0.0920273 0.100039 0.107632 0.114765 0.121397 0.127485 0.132983 0.137843 0.142014 
0.145442 0.148067 0.149823 0.150635 0.150415 0.149059 0.146435 0.142375 0.136654 
0.12895 0.118778 0.105329 0.0870325 0.0598267 
METADATA
INFORMATION 0

FIELD FieldData 5
gid 1 1580 float
0 1 2 3 4 5 6 7 8 
9 10 11 12 13 14 15 16 17 
18 19 20 21 22 23 24 25 26 
27 28 29 30 31 32 33 34 35 
36 37 38 39 40 41 42 43 44 
45 46 47 48 49 50 51 52 53 
54 55 56 57 58 59 60 61 62 
63 64 65 66 67 68 69 70 71 
72 73 74 75 76 77 78 79 80 
81 82 83 84 85 86 87 88 89 
90 91 92 93 94 95 96 97 98 
99 100 101 102 103 104 105 106 107 
108 109 110 111 112 113 114 115 116 
117 118 119 120 121 122 123 124 125 
126 127 128 129 130 131 132 133 134 
135 136 137 138 139 140 141 142 143 
144 145 146 147 148 149 150 151 152 
153 154 155 156 157 158 159 160 161 
162 163 164 165 166 167 168 169 170 
171 172 173 174 175 176 177 178 179 
180 181 182 183 184 185 186 187 188 
189 190 191 192 193 194 195 196 197 
198 199 200 201 202 203 204 205 206 
207 208 209 210 211 212 213 214 215 
216 217 218 219 220 221 222 223 224 
225 226 227 228 229 230 231 232 233 
234 235 236 237 238 239 240 241 242 
243 244 245 246 247 248 249 250 251 
252 253 254 255 256 257 258 259 260 
261 262 263 264 265 266 267 268 269 
270 271 272 273 274 275 276 277 278 
279 280 281 282 283 284 285 286 287 
288 289 290 291 292 293 294 295 296 
297 298 299 300 301 302 303 304 305 
306 307 308 309 310 311 312 313 314 
315 316 317 318 319 320 321 322 323 
324 325 326 327 328 329 330 331 332 
333 334 335 336 337 338 339 340 341 
342 343 344 345 346 347 348 349 350 
351 352 353 354 355 356 357 358 359 
360 361 362 363 364 365 366 367 368 
369 370 371 372 373 374 375 376 377 
378 379 380 381 382 383 384 385 386 
387 388 389 390 391 392 393 394 395 
396 397 398 399 400 401 402 403 404 
405 406 407 408 409 410 411 412 413 
414 415 416 417 418 419 420 421 422 
423 424 425 426 427 428 429 430 431 
432 433 434 435 436 437 438 439 440 
441 442 443 444 445 446 447 448 449 
450 451 452 453 454 455 456 457 458 
459 460 461 462 463 464 465 466 467 
468 469 470 471 472 473 474 475 476 
477 478 479 480 481 482 483 484 485 
486 487 488 489 490 491 492 493 494 
495 496 497 498 499 500 501 502 503 
504 505 506 507 508 509 510 511 512 
513 514 515 516 517 518 519 520 521 
522 523 524 525 526 527 528 529 530 
531 532 533 534 535 536 537 538 539 
540 541 542 543 544 545 546 547 548 
549 550 551 552 553 554 555 556 557 
558 559 560 561 562 563 564 565 566 
567 568 569 570 571 572 573 574 575 
576 577 578 579 580 581 582 583 584 
585 586 587 588 589 590 591 592 593 
594 595 596 597 598 599 600 601 602 
603 604 605 606 607 608 609 610 611 
612 613 614 615 616 617 618 619 620 
621 622 623 624 625 626 627 628 629 
630 631 632 633 634 635 636 637 638 
639 640 641 642 643 644 645 646 647 
648 649 650 651 652 653 654 655 656 
657 658 659 660 661 662 663 664 665 
666 667 668 669 670 671 672 673 674 
675 676 677 678 679 680 681 682 683 
684 685 686 687 688 689 690 691 692 
693 694 695 696 697 698 699 700 701 
702 703 704 705 706 707 708 709 710 
711 712 713 714 715 716 717 718 719 
720 721 722 723 724 725 726 727 728 
729 730 731 732 733 734 735 736 737 
738 739 740 741 742 743 744 745 746 
747 748 749 750 751 752 753 754 755 
756 757 758 759 760 761 762 763 764 
765 766 767 768 769 770 771 772 773 
774 775 776 777 778 779 780 781 782 
783 784 785 786 787 788 789 790 791 
792 793 794 795 796 797 798 799 800 
801 802 803 804 805 806 807 808 809 
810 811 812 813 814 815 816 817 818 
819 820 821 822 823 824 825 826 827 
828 829 830 831 832 833 834 835 836 
837 838 839 840 841 842 843 844 845 
846 847 848 849 850 851 852 853 854 
855 856 857 858 859 860 861 862 863 
864 865 866 867 868 869 870 871 872 
873 874 875 876 877 878 879 880 881 
882 883 884 885 886 887 888 889 890 
891 892 893 894 895 896 897 898 899 
900 901 902 903 904 905 906 907 908 
909 910 911 912 913 914 915 916 917 
918 919 920 921 922 923 924 925 926 
927 928 929 930 931 932 933 934 935 
936 937 938 939 940 941 942 943 944 
945 946 947 948 949 950 951 952 953 
954 955 956 957 958 959 960 961 962 
963 964 965 966 967 968 969 970 971 
972 973 974 975 976 977 978 979 980 
981 982 983 984 985 986 987 988 989 
990 991 992 993 994 995 996 997 998 
999 1000 1001 1002 1003 1004 1005 1006 1007 
1008 1009 1010 1011 1012 1013 1014 1015 1016 
1017 1018 1019 1020 1021 1022 1023 1024 1025 
1026 1027 1028 1029 1030 1031 1032 1033 1034 
1035 1036 1037 1038 1039 1040 1041 1042 1043 
1044 1045 1046 1047 1048 1049 1050 1051 1052 
1053 1054 1055 1056 1057 1058 1059 1060 1061 
1062 1063 1064 1065 1066 1067 1068 1069 1070 
1071 1072 1073 1074 1075 1076 1077 1078 1079 
1080 1081 1082 1083 1084 1085 1086 1087 1088 
1089 1090 1091 1092 1093 1094 1095 1096 1097 
1098 1099 1100 1101 1102 1103 1104 1105 1106 
1107 1108 1109 1110 1111 1112 1113 1114 1115 
1116 1117 1118 1119 1120 1121 1122 1123 1124 
1125 1126 1127 1128 1129 1130 1131 1132 1133 
1134 1135 1136 1137 1138 1139 1140 1141 1142 
1143 1144 1145 1146 1147 1148 1149 1150 1151 
1152 1153 1154 1155 1156 1157 1158 1159 1160 