# vtk DataFile Version 5.1
vtk output
ASCII
DATASET POLYDATA
POINTS 6320 float
0 -5 0 0 -4.55 0 0.05 -4.55 0.00782172 
0.05 -5 0.00782172 0.05 -5 0.00782172 0.05 -4.55 0.00782172 
0.1 -4.55 0.0154509 0.1 -5 0.0154509 0.1 -5 0.0154509 
0.1 -4.55 0.0154509 0.15 -4.55 0.0226995 0.15 -5 0.0226995 
0.15 -5 0.0226995 0.15 -4.55 0.0226995 0.2 -4.55 0.0293893 
0.2 -5 0.0293893 0.2 -5 0.0293893 0.2 -4.55 0.0293893 
0.25 -4.55 0.0353553 0.25 -5 0.0353553 0.25 -5 0.0353553 
0.25 -4.55 0.0353553 0.3 -4.55 0.0404508 0.3 -5 0.0404508 
0.3 -5 0.0404508 0.3 -4.55 0.0404508 0.35 -4.55 0.0445503 
0.35 -5 0.0445503 0.35 -5 0.0445503 0.35 -4.55 0.0445503 
0.4 -4.55 0.0475528 0.4 -5 0.0475528 0.4 -5 0.0475528 
0.4 -4.55 0.0475528 0.45 -4.55 0.0493844 0.45 -5 0.0493844 
0.45 -5 0.0493844 0.45 -4.55 0.0493844 0.5 -4.55 0.05 
0.5 -5 0.05 0.5 -5 0.05 0.5 -4.55 0.05 
0.55 -4.55 0.0493844 0.55 -5 0.0493844 0.55 -5 0.0493844 
0.55 -4.55 0.0493844 0.6 -4.55 0.0475528 0.6 -5 0.0475528 
0.6 -5 0.0475528 0.6 -4.55 0.0475528 0.65 -4.55 0.0445503 
0.65 -5 0.0445503 0.65 -5 0.0445503 0.65 -4.55 0.0445503 
0.7 -4.55 0.0404508 0.7 -5 0.0404508 0.7 -5 0.0404508 
0.7 -4.55 0.0404508 0.75 -4.55 0.0353553 0.75 -5 0.0353553 
0.75 -5 0.0353553 0.75 -4.55 0.0353553 0.8 -4.55 0.0293893 
0.8 -5 0.0293893 0.8 -5 0.0293893 0.8 -4.55 0.0293893 
0.85 -4.55 0.0226995 0.85 -5 0.0226995 0.85 -5 0.0226995 
0.85 -4.55 0.0226995 0.9 -4.55 0.0154509 0.9 -5 0.0154509 
0.9 -5 0.0154509 0.9 -4.55 0.0154509 0.95 -4.55 0.00782172 
0.95 -5 0.00782172 0.95 -5 0.00782172 0.95 -4.55 0.00782172 
1 -4.55 6.12323e-18 1 -5 6.12323e-18 0 -4.55 0 
0 -4.1 0 0.05 -4.1 0.00782172 0.05 -4.55 0.00782172 
0.05 -4.55 0.00782172 0.05 -4.1 0.00782172 0.1 -4.1 0.0154509 
0.1 -4.55 0.0154509 0.1 -4.55 0.0154509 0.1 -4.1 0.0154509 
0.15 -4.1 0.0226995 0.15 -4.55 0.0226995 0.15 -4.55 0.0226995 
0.15 -4.1 0.0226995 0.2 -4.1 0.0293893 0.2 -4.55 0.0293893 
0.2 -4.55 0.0293893 0.2 -4.1 0.0293893 0.25 -4.1 0.0353553 
0.25 -4.55 0.0353553 0.25 -4.55 0.0353553 0.25 -4.1 0.0353553 
0.3 -4.1 0.0404508 0.3 -4.55 0.0404508 0.3 -4.55 0.0404508 
0.3 -4.1 0.0404508 0.35 -4.1 0.0445503 0.35 -4.55 0.0445503 
0.35 -4.55 0.0445503 0.35 -4.1 0.0445503 0.4 -4.1 0.0475528 
0.4 -4.55 0.0475528 0.4 -4.55 0.0475528 0.4 -4.1 0.0475528 
0.45 -4.1 0.0493844 0.45 -4.55 0.0493844 0.45 -4.55 0.0493844 
0.45 -4.1 0.0493844 0.5 -4.1 0.05 0.5 -4.55 0.05 
0.5 -4.55 0.05 0.5 -4.1 0.05 0.55 -4.1 0.0493844 
0.55 -4.55 0.0493844 0.55 -4.55 0.0493844 0.55 -4.1 0.0493844 
0.6 -4.1 0.0475528 0.6 -4.55 0.0475528 0.6 -4.55 0.0475528 
0.6 -4.1 0.0475528 0.65 -4.1 0.0445503 0.65 -4.55 0.0445503 
0.65 -4.55 0.0445503 0.65 -4.1 0.0445503 0.7 -4.1 0.0404508 
0.7 -4.55 0.0404508 0.7 -4.55 0.0404508 0.7 -4.1 0.0404508 
0.75 -4.1 0.0353553 0.75 -4.55 0.0353553 0.75 -4.55 0.0353553 
0.75 -4.1 0.0353553 0.8 -4.1 0.0293893 0.8 -4.55 0.0293893 
0.8 -4.55 0.0293893 0.8 -4.1 0.0293893 0.85 -4.1 0.0226995 
0.85 -4.55 0.0226995 0.85 -4.55 0.0226995 0.85 -4.1 0.0226995 
0.9 -4.1 0.0154509 0.9 -4.55 0.0154509 0.9 -4.55 0.0154509 
0.9 -4.1 0.0154509 0.95 -4.1 0.00782172 0.95 -4.55 0.00782172 
0.95 -4.55 0.00782172 0.95 -4.1 0.00782172 1 -4.1 6.12323e-18 
1 -4.55 6.12323e-18 0 -4.1 0 0 -3.65 0 
0.05 -3.65 0.00782172 0.05 -4.1 0.00782172 0.05 -4.1 0.00782172 
0.05 -3.65 0.00782172 0.1 -3.65 0.0154509 0.1 -4.1 0.0154509 
0.1 -4.1 0.0154509 0.1 -3.65 0.0154509 0.15 -3.65 0.0226995 
0.15 -4.1 0.0226995 0.15 -4.1 0.0226995 0.15 -3.65 0.0226995 
0.2 -3.65 0.0293893 0.2 -4.1 0.0293893 0.2 -4.1 0.0293893 
0.2 -3.65 0.0293893 0.25 -3.65 0.0353553 0.25 -4.1 0.0353553 
0.25 -4.1 0.0353553 0.25 -3.65 0.0353553 0.3 -3.65 0.0404508 
0.3 -4.1 0.0404508 0.3 -4.1 0.0404508 0.3 -3.65 0.0404508 
0.35 -3.65 0.0445503 0.35 -4.1 0.0445503 0.35 -4.1 0.0445503 
0.35 -3.65 0.0445503 0.4 -3.65 0.0475528 0.4 -4.1 0.0475528 
0.4 -4.1 0.0475528 0.4 -3.65 0.0475528 0.45 -3.65 0.0493844 
0.45 -4.1 0.0493844 0.45 -4.1 0.0493844 0.45 -3.65 0.0493844 
0.5 -3.65 0.05 0.5 -4.1 0.05 0.5 -4.1 0.05 
0.5 -3.65 0.05 0.55 -3.65 0.0493844 0.55 -4.1 0.0493844 
0.55 -4.1 0.0493844 0.55 -3.65 0.0493844 0.6 -3.65 0.0475528 
0.6 -4.1 0.0475528 0.6 -4.1 0.0475528 0.6 -3.65 0.0475528 
0.65 -3.65 0.0445503 0.65 -4.1 0.0445503 0.65 -4.1 0.0445503 
0.65 -3.65 0.0445503 0.7 -3.65 0.0404508 0.7 -4.1 0.0404508 
0.7 -4.1 0.0404508 0.7 -3.65 0.0404508 0.75 -3.65 0.0353553 
0.75 -4.1 0.0353553 0.75 -4.1 0.0353553 0.75 -3.65 0.0353553 
0.8 -3.65 0.0293893 0.8 -4.1 0.0293893 0.8 -4.1 0.0293893 
0.8 -3.65 0.0293893 0.85 -3.65 0.0226995 0.85 -4.1 0.0226995 
0.85 -4.1 0.0226995 0.85 -3.65 0.0226995 0.9 -3.65 0.0154509 
0.9 -4.1 0.0154509 0.9 -4.1 0.0154509 0.9 -3.65 0.0154509 
0.95 -3.65 0.00782172 0.95 -4.1 0.00782172 0.95 -4.1 0.00782172 
0.95 -3.65 0.00782172 1 -3.65 6.12323e-18 1 -4.1 6.12323e-18 
0 -3.65 0 0 -3.2 0 0.05 -3.2 0.00782172 
0.05 -3.65 0.00782172 0.05 -3.65 0.00782172 0.05 -3.2 0.00782172 
0.1 -3.2 0.0154509 0.1 -3.65 0.0154509 0.1 -3.65 0.0154509 
0.1 -3.2 0.0154509 0.15 -3.2 0.0226995 0.15 -3.65 0.0226995 
0.15 -3.65 0.0226995 0.15 -3.2 0.0226995 0.2 -3.2 0.0293893 
0.2 -3.65 0.0293893 0.2 -3.65 0.0293893 0.2 -3.2 0.0293893 
0.25 -3.2 0.0353553 0.25 -3.65 0.0353553 0.25 -3.65 0.0353553 
0.25 -3.2 0.0353553 0.3 -3.2 0.0404508 0.3 -3.65 0.0404508 
0.3 -3.65 0.0404508 0.3 -3.2 0.0404508 0.35 -3.2 0.0445503 
0.35 -3.65 0.0445503 0.35 -3.65 0.0445503 0.35 -3.2 0.0445503 
0.4 -3.2 0.0475528 0.4 -3.65 0.0475528 0.4 -3.65 0.0475528 
0.4 -3.2 0.0475528 0.45 -3.2 0.0493844 0.45 -3.65 0.0493844 
0.45 -3.65 0.0493844 0.45 -3.2 0.0493844 0.5 -3.2 0.05 
0.5 -3.65 0.05 0.5 -3.65 0.05 0.5 -3.2 0.05 
0.55 -3.2 0.0493844 0.55 -3.65 0.0493844 0.55 -3.65 0.0493844 
0.55 -3.2 0.0493844 0.6 -3.2 0.0475528 0.6 -3.65 0.0475528 
0.6 -3.65 0.0475528 0.6 -3.2 0.0475528 0.65 -3.2 0.0445503 
0.65 -3.65 0.0445503 0.65 -3.65 0.0445503 0.65 -3.2 0.0445503 
0.7 -3.2 0.0404508 0.7 -3.65 0.0404508 0.7 -3.65 0.0404508 
0.7 -3.2 0.0404508 0.75 -3.2 0.0353553 0.75 -3.65 0.0353553 
0.75 -3.65 0.0353553 0.75 -3.2 0.0353553 0.8 -3.2 0.0293893 
0.8 -3.65 0.0293893 0.8 -3.65 0.0293893 0.8 -3.2 0.0293893 
0.85 -3.2 0.0226995 0.85 -3.65 0.0226995 0.85 -3.65 0.0226995 
0.85 -3.2 0.0226995 0.9 -3.2 0.0154509 0.9 -3.65 0.0154509 
0.9 -3.65 0.0154509 0.9 -3.2 0.0154509 0.95 -3.2 0.00782172 
0.95 -3.65 0.00782172 0.95 -3.65 0.00782172 0.95 -3.2 0.00782172 
1 -3.2 6.12323e-18 1 -3.65 6.12323e-18 0 -3.2 0 
0 -2.75 0 0.05 -2.75 0.00782172 0.05 -3.2 0.00782172 
0.05 -3.2 0.00782172 0.05 -2.75 0.00782172 0.1 -2.75 0.0154509 
0.1 -3.2 0.0154509 0.1 -3.2 0.0154509 0.1 -2.75 0.0154509 
0.15 -2.75 0.0226995 0.15 -3.2 0.0226995 0.15 -3.2 0.0226995 
0.15 -2.75 0.0226995 0.2 -2.75 0.0293893 0.2 -3.2 0.0293893 
0.2 -3.2 0.0293893 0.2 -2.75 0.0293893 0.25 -2.75 0.0353553 
0.25 -3.2 0.0353553 0.25 -3.2 0.0353553 0.25 -2.75 0.0353553 
0.3 -2.75 0.0404508 0.3 -3.2 0.0404508 0.3 -3.2 0.0404508 
0.3 -2.75 0.0404508 0.35 -2.75 0.0445503 0.35 -3.2 0.0445503 
0.35 -3.2 0.0445503 0.35 -2.75 0.0445503 0.4 -2.75 0.0475528 
0.4 -3.2 0.0475528 0.4 -3.2 0.0475528 0.4 -2.75 0.0475528 
0.45 -2.75 0.0493844 0.45 -3.2 0.0493844 0.45 -3.2 0.0493844 
0.45 -2.75 0.0493844 0.5 -2.75 0.05 0.5 -3.2 0.05 
0.5 -3.2 0.05 0.5 -2.75 0.05 0.55 -2.75 0.0493844 
0.55 -3.2 0.0493844 0.55 -3.2 0.0493844 0.55 -2.75 0.0493844 
0.6 -2.75 0.0475528 0.6 -3.2 0.0475528 0.6 -3.2 0.0475528 
0.6 -2.75 0.0475528 0.65 -2.75 0.0445503 0.65 -3.2 0.0445503 
0.65 -3.2 0.0445503 0.65 -2.75 0.0445503 0.7 -2.75 0.0404508 
0.7 -3.2 0.0404508 0.7 -3.2 0.0404508 0.7 -2.75 0.0404508 
0.75 -2.75 0.0353553 0.75 -3.2 0.0353553 0.75 -3.2 0.0353553 
0.75 -2.75 0.0353553 0.8 -2.75 0.0293893 0.8 -3.2 0.0293893 
0.8 -3.2 0.0293893 0.8 -2.75 0.0293893 0.85 -2.75 0.0226995 
0.85 -3.2 0.0226995 0.85 -3.2 0.0226995 0.85 -2.75 0.0226995 
0.9 -2.75 0.0154509 0.9 -3.2 0.0154509 0.9 -3.2 0.0154509 
0.9 -2.75 0.0154509 0.95 -2.75 0.00782172 0.95 -3.2 0.00782172 
0.95 -3.2 0.00782172 0.95 -2.75 0.00782172 1 -2.75 6.12323e-18 
1 -3.2 6.12323e-18 0 -2.75 0 0 -2.3 0 
0.05 -2.3 0.00782172 0.05 -2.75 0.00782172 0.05 -2.75 0.00782172 
0.05 -2.3 0.00782172 0.1 -2.3 0.0154509 0.1 -2.75 0.0154509 
0.1 -2.75 0.0154509 0.1 -2.3 0.0154509 0.15 -2.3 0.0226995 
0.15 -2.75 0.0226995 0.15 -2.75 0.0226995 0.15 -2.3 0.0226995 
0.2 -2.3 0.0293893 0.2 -2.75 0.0293893 0.2 -2.75 0.0293893 
0.2 -2.3 0.0293893 0.25 -2.3 0.0353553 0.25 -2.75 0.0353553 
0.25 -2.75 0.0353553 0.25 -2.3 0.0353553 0.3 -2.3 0.0404508 
0.3 -2.75 0.0404508 0.3 -2.75 0.0404508 0.3 -2.3 0.0404508 
0.35 -2.3 0.0445503 0.35 -2.75 0.0445503 0.35 -2.75 0.0445503 
0.35 -2.3 0.0445503 0.4 -2.3 0.0475528 0.4 -2.75 0.0475528 
0.4 -2.75 0.0475528 0.4 -2.3 0.0475528 0.45 -2.3 0.0493844 
0.45 -2.75 0.0493844 0.45 -2.75 0.0493844 0.45 -2.3 0.0493844 
0.5 -2.3 0.05 0.5 -2.75 0.05 0.5 -2.75 0.05 
0.5 -2.3 0.05 0.55 -2.3 0.0493844 0.55 -2.75 0.0493844 
0.55 -2.75 0.0493844 0.55 -2.3 0.0493844 0.6 -2.3 0.0475528 
0.6 -2.75 0.0475528 0.6 -2.75 0.0475528 0.6 -2.3 0.0475528 
0.65 -2.3 0.0445503 0.65 -2.75 0.0445503 0.65 -2.75 0.0445503 
0.65 -2.3 0.0445503 0.7 -2.3 0.0404508 0.7 -2.75 0.0404508 
0.7 -2.75 0.0404508 0.7 -2.3 0.0404508 0.75 -2.3 0.0353553 
0.75 -2.75 0.0353553 0.75 -2.75 0.0353553 0.75 -2.3 0.0353553 
0.8 -2.3 0.0293893 0.8 -2.75 0.0293893 0.8 -2.75 0.0293893 
0.8 -2.3 0.0293893 0.85 -2.3 0.0226995 0.85 -2.75 0.0226995 
0.85 -2.75 0.0226995 0.85 -2.3 0.0226995 0.9 -2.3 0.0154509 
0.9 -2.75 0.0154509 0.9 -2.75 0.0154509 0.9 -2.3 0.0154509 
0.95 -2.3 0.00782172 0.95 -2.75 0.00782172 0.95 -2.75 0.00782172 
0.95 -2.3 0.00782172 1 -2.3 6.12323e-18 1 -2.75 6.12323e-18 
0 -2.3 0 0 -1.85 0 0.05 -1.85 0.00782172 
0.05 -2.3 0.00782172 0.05 -2.3 0.00782172 0.05 -1.85 0.00782172 
0.1 -1.85 0.0154509 0.1 -2.3 0.0154509 0.1 -2.3 0.0154509 
0.1 -1.85 0.0154509 0.15 -1.85 0.0226995 0.15 -2.3 0.0226995 
0.15 -2.3 0.0226995 0.15 -1.85 0.0226995 0.2 -1.85 0.0293893 
0.2 -2.3 0.0293893 0.2 -2.3 0.0293893 0.2 -1.85 0.0293893 
0.25 -1.85 0.0353553 0.25 -2.3 0.0353553 0.25 -2.3 0.0353553 
[...]
CELL_DATA 1580
SCALARS CP float
LOOKUP_TABLE default
40.3976 21.622 17.6865 16.223 15.6417 15.4327 15.3604 15.2919 15.144 
14.8639 14.4202 13.7984 12.997 12.0243 10.895 9.62584 8.23127 6.71573 
5.05628 3.13285 55.8928 29.9774 24.3938 22.1551 21.1026 20.5583 20.2172 
19.9117 19.5392 19.0349 18.3599 17.4947 16.4349 15.1868 13.7635 12.1798 
10.4467 8.56198 6.48653 4.05224 64.975 34.7176 28.0889 25.3394 23.9676 
23.1936 22.67 22.2082 21.6938 21.055 20.2484 19.2517 18.0586 16.6739 
15.1093 13.3783 11.4893 9.43582 7.16952 4.49675 70.8967 37.7575 30.4223 
27.3218 25.7283 24.7941 24.1439 23.575 22.9652 22.238 21.3471 20.2682 
18.9935 17.5271 15.8795 14.0632 12.0851 9.93571 7.56119 4.75263 75.0634 
39.8737 32.0303 28.675 26.9195 25.8681 25.1255 24.4789 23.8007 23.0109 
22.0611 20.9256 19.5958 18.0747 16.3726 14.5008 12.4651 10.2544 7.8109 
4.91592 78.2316 41.4679 33.2307 29.6765 27.7937 26.65 25.8346 25.1271 
24.3956 23.5576 22.563 21.3851 20.0145 18.4537 16.7123 14.8011 12.7253 
10.472 7.98111 5.02709 80.9186 42.8025 34.2224 30.4926 28.4963 27.2695 
26.3884 25.6262 24.8472 23.9669 22.9338 21.7202 20.3162 18.7237 16.9519 
15.0111 12.9056 10.6218 8.09766 5.10287 83.6922 44.141 35.1857 31.2578 
29.1299 27.805 26.8459 26.0191 25.1854 24.2581 23.1843 21.9354 20.5005 
18.8812 17.0857 15.1239 12.9995 10.6978 8.15556 5.14001 87.9219 46.0326 
36.4211 32.124 29.7404 28.2226 27.1131 26.1686 25.244 24.2484 23.1257 
21.8444 20.3908 18.7638 16.9696 15.0157 12.9042 10.6189 8.09604 5.10328 
102.124 50.8453 38.3601 32.4667 29.0781 26.9213 25.4306 24.2977 23.3323 
22.408 21.4389 20.367 19.1547 17.7799 16.2304 14.499 12.5771 10.4424 
8.02837 5.10079 102.124 50.8453 38.3601 32.4667 29.0781 26.9213 25.4306 
24.2977 23.3323 22.408 21.4389 20.367 19.1547 17.7799 16.2304 14.499 
12.5771 10.4424 8.02837 5.10079 87.9219 46.0326 36.4211 32.124 29.7404 
28.2226 27.1131 26.1686 25.244 24.2484 23.1257 21.8444 20.3908 18.7638 
16.9696 15.0157 12.9042 10.6189 8.09604 5.10328 83.6922 44.141 35.1857 
31.2578 29.1299 27.805 26.8459 26.0191 25.1854 24.2581 23.1843 21.9354 
20.5005 18.8812 17.0857 15.1239 12.9995 10.6978 8.15556 5.14001 80.9186 
42.8025 34.2224 30.4926 28.4963 27.2695 26.3884 25.6262 24.8472 23.9669 
22.9338 21.7202 20.3162 18.7237 16.9519 15.0111 12.9056 10.6218 8.09766 
5.10287 78.2316 41.4679 33.2307 29.6765 27.7937 26.65 25.8346 25.1271 
24.3956 23.5576 22.563 21.3851 20.0145 18.4537 16.7123 14.8011 12.7253 
10.472 7.98111 5.02709 75.0634 39.8737 32.0303 28.675 26.9195 25.8681 
25.1255 24.4789 23.8007 23.0109 22.0611 20.9256 19.5958 18.0747 16.3726 
14.5008 12.4651 10.2544 7.8109 4.91592 70.8967 37.7575 30.4223 27.3218 
25.7283 24.7941 24.1439 23.575 22.9652 22.238 21.3471 20.2682 18.9935 
17.5271 15.8795 14.0632 12.0851 9.93571 7.56119 4.75263 64.975 34.7176 
28.0889 25.3394 23.9676 23.1936 22.67 22.2082 21.6938 21.055 20.2484 
19.2517 18.0586 16.6739 15.1093 13.3783 11.4893 9.43582 7.16952 4.49675 
55.8928 29.9774 24.3938 22.1551 21.1026 20.5583 20.2172 19.9117 19.5392 
19.0349 18.3599 17.4947 16.4349 15.1868 13.7635 12.1798 10.4467 8.56198 
6.48653 4.05224 40.3976 21.622 17.6865 16.223 15.6417 15.4327 15.3604 
15.2919 15.144 14.8639 14.4202 13.7984 12.997 12.0243 10.895 9.62584 
8.23127 6.71573 5.05628 3.13285 15.8427 5.37912 2.04972 0.158444 2.21905 
4.76355 9.00786 22.7705 6.10838 3.30277 17.4355 6.11706 2.35672 0.257114 
2.7015 5.57053 10.0086 23.7423 6.69962 3.39504 17.6749 6.21371 2.38123 
0.298529 2.8011 5.71251 10.1683 23.8865 6.78251 3.42774 17.6967 6.2218 
2.37875 0.312086 2.82475 5.74337 10.2016 23.9145 6.79498 3.44737 17.7384 
6.24734 2.39826 0.298215 2.81674 5.74135 10.2055 23.9252 6.81172 3.41903 
17.9004 6.33843 2.46985 0.240355 2.77242 5.71227 10.195 23.9426 6.86349 
3.29692 18.2897 6.55658 2.64418 0.0948346 2.65548 5.62941 10.1565 23.9749 
6.98601 2.99085 19.0667 7.01541 3.03708 0.261831 2.33866 5.37312 9.9979 
23.9929 7.24174 2.26473 20.3712 7.88154 3.89882 1.19951 1.30571 4.28457 
9.00454 23.5415 7.68839 0.191455 21.767 8.97283 5.23752 3.08535 1.57459 
0.449933 0.340606 0.758004 0.797423 0.577156 21.767 8.97283 5.23752 3.08535 
1.57459 0.449933 0.340606 0.758004 0.797423 0.577156 20.3712 7.88154 3.89882 
1.19951 1.30571 4.28457 9.00454 23.5415 7.68839 0.191455 19.0667 7.01541 
3.03708 0.261831 2.33866 5.37312 9.9979 23.9929 7.24174 2.26473 18.2897 
6.55658 2.64418 0.0948346 2.65548 5.62941 10.1565 23.9749 6.98601 2.99085 
17.9004 6.33843 2.46985 0.240355 2.77242 5.71227 10.195 23.9426 6.86349 
3.29692 17.7384 6.24734 2.39826 0.298215 2.81674 5.74135 10.2055 23.9252 
6.81172 3.41903 17.6967 6.2218 2.37875 0.312086 2.82475 5.74337 10.2016 
23.9145 6.79498 3.44737 17.6749 6.21371 2.38123 0.298529 2.8011 5.71251 
10.1683 23.8865 6.78251 3.42774 17.4355 6.11706 2.35672 0.257114 2.7015 
5.57053 10.0086 23.7423 6.69962 3.39504 15.8427 5.37912 2.04972 0.158444 
2.21905 4.76355 9.00786 22.7705 6.10838 3.30277 8.66698e-15 3.07026e-15 2.9573e-15 
5.32864e-16 1.09213e-15 1.21921e-15 8.62692e-16 2.53077e-16 2.26956e-16 1.61377e-15 7.29986e-15 1.8705e-15 
2.21695e-15 1.69999e-15 2.17521e-15 3.26914e-17 4.00742e-16 1.719e-16 1.64022e-15 1.4066e-15 8.08806e-15 
4.07985e-15 2.09581e-15 1.1112e-15 8.94031e-16 6.34028e-16 5.24769e-16 1.90107e-15 1.3075e-15 7.70218e-16 
1.05418e-14 3.95108e-15 2.87936e-15 2.37381e-15 3.53078e-16 1.76215e-15 1.78357e-15 1.46403e-15 1.86259e-15 
1.00714e-15 1.1552e-14 6.04858e-15 3.97548e-15 2.35001e-15 3.52925e-15 3.18866e-15 2.21691e-15 1.8229e-15 
2.50268e-15 1.77864e-15 1.61619e-14 6.24579e-15 6.55824e-15 4.07398e-15 4.24174e-15 1.92503e-15 4.02486e-15 
3.24936e-15 2.47425e-15 4.70209e-16 2.25267e-14 1.0249e-14 7.10894e-15 5.9132e-15 4.80101e-15 4.80984e-15 
4.30913e-15 5.46647e-15 1.99436e-15 1.81717e-15 2.88395e-14 1.49602e-14 9.98397e-15 1.10144e-14 3.32638e-15 
6.3563e-15 1.08865e-14 2.84601e-15 3.48156e-15 3.36153e-15 4.18789e-14 1.80721e-14 1.73555e-14 9.54305e-15 
9.12412e-15 5.7613e-15 4.5948e-15 3.07584e-15 2.0871e-15 1.00609e-14 6.22357e-14 2.92859e-14 2.18722e-14 
9.06843e-15 1.72432e-14 1.21812e-14 9.60971e-16 1.7156e-15 8.85957e-15 1.25576e-14 1.75623e-15 6.45537e-16 
8.26705e-16 2.02392e-16 6.37044e-16 2.90518e-15 1.27141e-15 2.76613e-15 1.54171e-15 1.85231e-15 2.17725e-15 
1.03594e-15 1.10787e-15 2.43155e-16 1.54359e-15 1.94436e-15 2.28513e-15 8.90598e-16 2.81058e-15 1.34441e-15 
4.62486e-15 8.22728e-15 5.07096e-15 2.03947e-15 3.90329e-15 7.62341e-15 6.28783e-18 6.56768e-15 5.41954e-15 
3.13848e-15 1.25175e-15 9.08879e-16 5.05384e-15 5.03521e-15 5.19949e-15 6.33072e-15 1.34183e-16 6.71475e-16 
1.00067e-15 1.71596e-15 3.78872e-15 1.28499e-15 1.91822e-15 4.81839e-15 3.1193e-15 2.39331e-15 3.19681e-15 
1.60716e-15 5.22917e-15 9.58274e-15 1.10157e-14 1.80692e-15 5.41149e-15 4.23188e-15 2.41067e-15 1.13019e-14 
1.35639e-14 1.19176e-14 2.54511e-15 8.73607e-15 4.24361e-15 3.0292e-15 1.0224e-14 1.89854e-15 1.25914e-14 
4.83827e-15 3.26475e-15 2.65859e-15 4.17672e-15 1.22192e-14 6.24573e-15 3.1055e-15 5.02259e-14 8.10168e-15 
2.20125e-14 1.19079e-14 3.68793e-16 1.48365e-14 1.9421e-14 4.7993e-15 9.77991e-15 1.38714e-14 1.04496e-14 
1.22662e-14 3.3562e-15 1.75339e-14 2.70349e-14 9.03299e-15 4.34713e-15 1.37189e-14 2.40296e-14 1.69642e-14 
4.25095e-15 1.35572e-14 3.9135e-15 1.35161e-14 1.19144e-14 7.97506e-15 1.74663e-14 1.1659e-14 9.69996e-15 
9.21641e-15 1.39124e-15 5.9825e-15 3.23409e-15 1.37966e-14 1.27472e-14 1.02862e-14 1.92879e-14 2.43832e-15 
1.52902e-14 2.13696e-15 1.02075e-15 1.41821e-14 6.44524e-16 3.06847e-15 8.57549e-15 1.99801e-14 4.2078e-14 
4.30425e-14 2.47199e-14 2.50588e-14 5.62593e-15 3.73028e-14 3.88859e-14 1.09834e-14 4.1693e-15 9.12318e-16 
4.85172e-14 2.27338e-14 4.39603e-14 3.22715e-14 2.06416e-14 3.36547e-14 1.59039e-15 4.77973e-15 3.58468e-15 
2.05625e-14 4.89607e-15 1.94454e-15 1.40611e-16 3.08069e-14 1.72141e-14 4.17718e-14 4.46209e-14 1.46167e-14 
1.59613e-15 7.52265e-15 2.24844e-14 3.66955e-14 2.9152e-14 4.94016e-15 7.41678e-14 1.80611e-14 5.74597e-16 
3.27258e-14 1.48492e-14 6.44477e-14 3.39617e-14 3.10864e-14 2.27742e-14 1.4557e-14 2.50098e-15 9.11553e-15 
4.54715e-14 1.96177e-14 1.32416e-14 3.45556e-14 3.032e-14 6.18985e-14 1.44226e-14 7.66703e-14 8.08136e-14 
1.47702e-14 3.88636e-16 1.13976e-14 3.17445e-14 6.15861e-16 6.43612e-15 1.88749e-14 2.56023e-14 2.90096e-14 
9.27238e-15 4.39031e-14 4.21492e-14 7.52534e-14 9.20282e-15 1.51607e-14 3.52976e-14 2.59001e-14 2.16682e-14 
1.83856e-14 3.03526e-17 3.25765e-14 6.67027e-15 3.69625e-14 1.94432e-15 1.54204e-14 2.18461e-14 7.43587e-15 
5.53162e-14 5.21819e-14 4.55102e-14 3.20682e-14 7.75982e-14 3.90999e-14 6.82944e-15 4.88854e-14 7.61775e-15 
1.59196e-14 1.60481e-14 2.32756e-14 3.08129e-14 6.63613e-14 4.18136e-14 1.89065e-14 1.93962e-15 3.91776e-14 
4.07781e-14 3.85432e-15 1.53063e-15 8.35854e-16 3.16029e-16 6.13495e-16 1.17776e-15 1.34958e-15 2.6962e-15 
1.15216e-15 1.67269e-15 1.99509e-15 2.81832e-16 1.83774e-15 2.88413e-15 1.22845e-15 3.86354e-15 2.49951e-16 
2.42499e-15 2.00423e-15 2.01079e-15 8.83194e-16 3.29782e-15 3.62192e-15 1.10594e-15 4.34958e-15 1.5292e-15 
3.17742e-15 2.12449e-15 2.61395e-15 1.56641e-15 5.1949e-16 8.74727e-16 4.73873e-16 1.89007e-15 8.21162e-15 
5.30303e-15 3.48891e-16 4.18017e-15 6.9919e-15 6.86766e-15 7.96101e-15 1.92508e-15 4.01786e-15 3.00935e-15 
1.47974e-15 7.23862e-15 4.18856e-15 4.23401e-15 9.50517e-16 6.88415e-15 2.85344e-15 2.00758e-15 5.15136e-15 
2.69054e-15 2.68752e-15 2.76353e-15 4.31613e-16 7.62503e-15 9.007e-15 2.25095e-15 3.30281e-15 1.0133e-14 
8.02707e-16 4.25817e-15 5.81239e-15 1.71447e-15 4.8362e-18 7.48693e-15 3.58225e-15 4.66106e-15 2.09136e-15 
2.57942e-15 6.01304e-15 6.10206e-15 6.63568e-15 7.9004e-16 3.1411e-15 1.12593e-14 1.33965e-15 7.56529e-15 
1.09868e-14 2.35616e-15 1.77261e-15 2.99625e-15 3.41337e-14 1.00245e-14 5.74587e-15 5.91001e-15 1.53043e-15 
3.74255e-15 2.19546e-14 2.07096e-15 1.15567e-14 7.62777e-15 2.87449e-15 2.87194e-14 1.42681e-14 1.70912e-14 
8.03385e-15 1.64118e-14 7.60126e-15 1.2428e-14 2.70206e-14 1.62388e-14 6.84109e-15 1.2758e-15 3.10494e-14 
1.91463e-14 2.32309e-14 3.83022e-15 4.70315e-15 1.91048e-14 1.41935e-14 1.86543e-14 2.80689e-14 9.60869e-15 
7.22214e-15 1.36728e-14 1.45398e-14 1.85144e-14 1.20967e-14 5.44973e-15 4.57211e-14 4.2595e-15 5.71511e-15 
2.46441e-15 1.41931e-14 1.78058e-14 7.84435e-15 7.07067e-15 2.66536e-14 2.1861e-14 1.34426e-14 2.00104e-14 
1.12645e-15 2.3427e-14 1.00308e-14 1.04548e-14 2.63428e-15 2.07673e-14 6.91379e-16 1.34091e-14 1.97809e-14 
1.34006e-14 2.30061e-14 1.05864e-14 2.6312e-14 1.31021e-14 2.89295e-15 2.28127e-15 1.82854e-14 2.14359e-14 
1.10658e-15 5.5178e-15 1.22053e-15 1.30501e-14 2.42579e-15 8.40256e-16 4.26817e-15 1.63278e-14 1.22794e-16 
5.62542e-15 1.06892e-14 4.38302e-15 3.54417e-15 4.17241e-15 1.23317e-14 9.84211e-15 4.67715e-14 3.7576e-14 
2.31024e-14 1.60088e-14 2.80642e-14 1.15833e-14 1.51119e-14 2.90523e-14 3.91556e-14 5.18554e-14 1.71572e-14 
2.35247e-14 1.80651e-14 6.05675e-15 3.80789e-15 2.5967e-14 1.26791e-14 1.20488e-14 4.67674e-14 2.81346e-14 
1.67769e-14 3.34155e-14 3.07831e-14 2.51452e-14 3.77555e-14 3.39965e-15 1.30949e-14 2.2866e-14 4.96469e-14 
6.41806e-15 1.70335e-15 4.19916e-14 5.45755e-14 1.11219e-14 5.72024e-14 6.14288e-14 5.50397e-14 1.9524e-14 
6.52836e-14 4.04009e-14 8.27375e-16 2.59157e-14 1.3049e-14 7.94516e-15 8.73637e-15 4.26796e-14 2.43319e-14 
8.09598e-14 2.37724e-14 3.05587e-14 1.62262e-14 2.62228e-14 2.33731e-14 20.2052 7.28983 4.3611 
3.19982 2.64858 2.36058 2.20113 2.10996 2.05745 2.02804 2.01309 2.0076 
2.0086 2.01424 2.02337 2.03527 2.04946 2.06566 2.08367 2.10341 2.12482 
2.1479 2.17269 2.19922 2.22758 2.25785 2.29013 2.32456 2.36125 2.40037 
2.44207 2.48653 2.53393 2.58451 2.63846 2.69606 2.75755 2.82322 2.89339 
2.96839 3.04858 3.13435 3.22612 3.32435 3.42953 3.54219 3.6629 3.79229 
3.93102 4.07981 4.23944 4.41074 4.59462 4.79203 5.004 5.23161 5.47601 
5.73839 6.01995 6.32188 6.64528 6.99106 7.35974 7.75121 8.16427 8.596 
9.04086 9.48982 9.93002 10.3476 10.8831 11.1918 11.3489 11.404 11.3824 
11.3049 11.1878 11.0426 10.876 10.6904 10.4846 10.2548 9.99558 9.70141 
9.36778 8.99265 8.5776 8.1286 7.65602 7.17353 6.69571 6.23516 5.80031 
5.39523 5.02073 4.67579 4.35855 4.06687 3.79859 3.55167 3.32422 3.11449 
2.92092 2.74207 2.57666 2.42351 2.28158 2.14991 2.02763 1.91397 1.80822 
1.70973 1.61792 1.53225 1.45226 1.37749 1.30754 1.24206 1.18069 1.12314 
1.06912 1.01838 0.970685 0.925813 0.883567 0.843765 0.806237 0.770829 0.737398 
0.705811 0.675947 0.647693 0.620945 0.595605 0.571586 0.548804 0.527182 0.506649 
0.487139 0.46859 0.450944 0.434149 0.418154 0.402913 0.388383 0.374524 0.361298 
0.348669 0.336606 0.325076 0.314051 0.303504 0.29341 0.283745 0.274486 0.265614 
0.257107 0.248948 0.241119 0.233605 0.226389 0.219457 0.212796 0.206393 0.200236 
0.194313 0.188615 0.18313 0.17785 0.172765 0.167868 0.163149 0.158603 0.154221 
0.149997 0.145926 0.142 0.138216 0.134566 0.131047 0.127654 0.124382 0.121227 
0.118185 0.115252 0.112424 0.109698 0.107069 0.104535 0.102092 0.0997356 0.0974623 
0.0952681 0.0931488 0.0910999 0.0891166 0.0871936 0.0853253 0.0835052 0.0817265 0.0799814 
0.0782611 0.0765559 0.0748547 0.0731452 0.0714128 0.0696414 0.0678118 0.0659017 0.0638847 
0.0617289 0.0593955 0.0568357 0.0539865 0.0507641 0.0470515 0.0426738 0.0373446 0.0305162 
0.0207852 20.3368 7.33729 4.38949 3.22065 2.66583 2.37594 2.21546 2.12369 
2.07085 2.04124 2.02619 2.02067 2.02167 2.02735 2.03655 2.04852 2.0628 
2.0791 2.09724 2.1171 2.13865 2.16188 2.18683 2.21354 2.24208 2.27254 
2.30504 2.33969 2.37663 2.416 2.45796 2.50271 2.55043 2.60133 2.65564 
2.71361 2.7755 2.8416 2.91223 2.98771 3.06842 3.15475 3.24712 3.34599 
3.45185 3.56524 3.68674 3.81697 3.9566 4.10636 4.26703 4.43945 4.62453 
4.82322 5.03657 5.26567 5.51166 5.77575 6.05914 6.36304 6.68854 7.03657 
7.40765 7.80167 8.21742 8.65195 9.09971 9.5516 9.99466 10.4149 10.8831 
11.1918 11.3489 11.404 11.3824 11.3049 11.1878 11.0426 10.876 10.6904 
10.4846 10.2548 9.99558 9.70141 9.36778 8.99265 8.5776 8.1286 7.65602 
7.17353 6.69571 6.23516 5.80031 5.39523 5.02073 4.67579 4.35855 4.06687 
3.79859 3.55167 3.32422 3.11449 2.92092 2.74207 2.57666 2.42351 2.28158 
2.14991 2.02763 1.91397 1.80822 1.70973 1.61792 1.53225 1.45226 1.37749 
1.30754 1.24206 1.18069 1.12314 1.06912 1.01838 0.970685 0.925813 0.883567 
0.843765 0.806237 0.770829 0.737398 0.705811 0.675947 0.647693 0.620945 0.595605 
0.571586 0.548804 0.527182 0.506649 0.487139 0.46859 0.450944 0.434149 0.418154 
0.402913 0.388383 0.374524 0.361298 0.348669 0.336606 0.325076 0.314051 0.303504 
0.29341 0.283745 0.274486 0.265614 0.257107 0.248948 0.241119 0.233605 0.226389 
0.219457 0.212796 0.206393 0.200236 0.194313 0.188615 0.18313 0.17785 0.172765 
0.167868 0.163149 0.158603 0.154221 0.149997 0.145926 0.142 0.138216 0.134566 
0.131047 0.127654 0.124382 0.121227 0.118185 0.115252 0.112424 0.109698 0.107069 
0.104535 0.102092 0.0997356 0.0974623 0.0952681 0.0931488 0.0910999 0.0891166 0.0871936 
0.0853253 0.0835052 0.0817265 0.0799814 0.0782611 0.0765559 0.0748547 0.0731452 0.0714128 
0.0696414 0.0678118 0.0659017 0.0638847 0.0617289 0.0593955 0.0568357 0.0539865 0.0507641 
0.0470515 0.0426738 0.0373446 0.0305162 0.0207852 
METADATA
INFORMATION 0

FIELD FieldData 5
gid 1 1580 float
0 1 2 3 4 5 6 7 8 
9 10 11 12 13 14 15 16 17 
18 19 20 21 22 23 24 25 26 
27 28 29 30 31 32 33 34 35 
36 37 38 39 40 41 42 43 44 
45 46 47 48 49 50 51 52 53 
54 55 56 57 58 59 60 61 62 
63 64 65 66 67 68 69 70 71 
72 73 74 75 76 77 78 79 80 
81 82 83 84 85 86 87 88 89 
90 91 92 93 94 95 96 97 98 
99 100 101 102 103 104 105 106 107 
108 109 110 111 112 113 114 115 116 
117 118 119 120 121 122 123 124 125 
126 127 128 129 130 131 132 133 134 
135 136 137 138 139 140 141 142 143 
144 145 146 147 148 149 150 151 152 
153 154 155 156 157 158 159 160 161 
162 163 164 165 166 167 168 169 170 
171 172 173 174 175 176 177 178 179 
180 181 182 183 184 185 186 187 188 
189 190 191 192 193 194 195 196 197 
198 199 200 201 202 203 204 205 206 
207 208 209 210 211 212 213 214 215 
216 217 218 219 220 221 222 223 224 
225 226 227 228 229 230 231 232 233 
234 235 236 237 238 239 240 241 242 
243 244 245 246 247 248 249 250 251 
252 253 254 255 256 257 258 259 260 
261 262 263 264 265 266 267 268 269 
270 271 272 273 274 275 276 277 278 
279 280 281 282 283 284 285 286 287 
288 289 290 291 292 293 294 295 296 
297 298 299 300 301 302 303 304 305 
306 307 308 309 310 311 312 313 314 
315 316 317 318 319 320 321 322 323 
324 325 326 327 328 329 330 331 332 
333 334 335 336 337 338 339 340 341 
342 343 344 345 346 347 348 349 350 
351 352 353 354 355 356 357 358 359 
360 361 362 363 364 365 366 367 368 
369 370 371 372 373 374 375 376 377 
378 379 380 381 382 383 384 385 386 
387 388 389 390 391 392 393 394 395 
396 397 398 399 400 401 402 403 404 
405 406 407 408 409 410 411 412 413 
414 415 416 417 418 419 420 421 422 
423 424 425 426 427 428 429 430 431 
432 433 434 435 436 437 438 439 440 
441 442 443 444 445 446 447 448 449 
450 451 452 453 454 455 456 457 458 
459 460 461 462 463 464 465 466 467 
468 469 470 471 472 473 474 475 476 
477 478 479 480 481 482 483 484 485 
486 487 488 489 490 491 492 493 494 
495 496 497 498 499 500 501 502 503 
504 505 506 507 508 509 510 511 512 
513 514 515 516 517 518 519 520 521 
522 523 524 525 526 527 528 529 530 
531 532 533 534 535 536 537 538 539 
540 541 542 543 544 545 546 547 548 
549 550 551 552 553 554 555 556 557 
558 559 560 561 562 563 564 565 566 
567 568 569 570 571 572 573 574 575 
576 577 578 579 580 581 582 583 584 
585 586 587 588 589 590 591 592 593 
594 595 596 597 598 599 600 601 602 
603 604 605 606 607 608 609 610 611 
612 613 614 615 616 617 618 619 620 
621 622 623 624 625 626 627 628 629 
630 631 632 633 634 635 636 637 638 
639 640 641 642 643 644 645 646 647 
648 649 650 651 652 653 654 655 656 
657 658 659 660 661 662 663 664 665 
666 667 668 669 670 671 672 673 674 
675 676 677 678 679 680 681 682 683 
684 685 686 687 688 689 690 691 692 
693 694 695 696 697 698 699 700 701 
702 703 704 705 706 707 708 709 710 
711 712 713 714 715 716 717 718 719 
720 721 722 723 724 725 726 727 728 
729 730 731 732 733 734 735 736 737 
738 739 740 741 742 743 744 745 746 
747 748 749 750 751 752 753 754 755 
756 757 758 759 760 761 762 763 764 
765 766 767 768 769 770 771 772 773 
774 775 776 777 778 779 780 781 782 
783 784 785 786 787 788 789 790 791 
792 793 794 795 796 797 798 799 800 
801 802 803 804 805 806 807 808 809 
810 811 812 813 814 815 816 817 818 
819 820 821 822 823 824 825 826 827 
828 829 830 831 832 833 834 835 836 
837 838 839 840 841 842 843 844 845 
846 847 848 849 850 851 852 853 854 
855 856 857 858 859 860 861 862 863 
864 865 866 867 868 869 870 871 872 
873 874 875 876 877 878 879 880 881 
882 883 884 885 886 887 888 889 890 
891 892 893 894 895 896 897 898 899 
900 901 902 903 904 905 906 907 908 
909 910 911 912 913 914 915 916 917 
918 919 920 921 922 923 924 925 926 
927 928 929 930 931 932 933 934 935 
936 937 938 939 940 941 942 943 944 
945 946 947 948 949 950 951 952 953 
954 955 956 957 958 959 960 961 962 
963 964 965 966 967 968 969 970 971 
972 973 974 975 976 977 978 979 980 
981 982 983 984 985 986 987 988 989 
990 991 992 993 994 995 996 997 998 
999 1000 1001 1002 1003 1004 1005 1006 1007 
1008 1009 1010 1011 1012 1013 1014 1015 1016 
1017 1018 1019 1020 1021 1022 1023 1024 1025 
1026 1027 1028 1029 1030 1031 1032 1033 1034 
1035 1036 1037 1038 1039 1040 1041 1042 1043 
1044 1045 1046 1047 1048 1049 1050 1051 1052 
1053 1054 1055 1056 1057 1058 1059 1060 1061 
1062 1063 1064 1065 1066 1067 1068 1069 1070 
1071 1072 1073 1074 1075 1076 1077 1078 1079 
1080 1081 1082 1083 1084 1085 1086 1087 1088 
1089 1090 1091 1092 1093 1094 1095 1096 1097 
1098 1099 1100 1101 1102 1103 1104 1105 1106 
1107 1108 1109 1110 1111 1112 1113 1114 1115 
1116 1117 1118 1119 1120 1121 1122 1123 1124 
1125 1126 1127 1128 1129 1130 1131 1132 1133 
1134 1135 1136 1137 1138 1139 1140 1141 1142 
1143 1144 1145 1146 1147 1148 1149 1150 1151 