# vtk DataFile Version 5.1
vtk output
ASCII
DATASET POLYDATA
POINTS 6320 float
0 -5 0 0 -4.55 0 0.05 -4.55 0.00782172 
0.05 -5 0.00782172 0.05 -5 0.00782172 0.05 -4.55 0.00782172 
0.1 -4.55 0.0154509 0.1 -5 0.0154509 0.1 -5 0.0154509 
0.1 -4.55 0.0154509 0.15 -4.55 0.0226995 0.15 -5 0.0226995 
0.15 -5 0.0226995 0.15 -4.55 0.0226995 0.2 -4.55 0.0293893 
0.2 -5 0.0293893 0.2 -5 0.0293893 0.2 -4.55 0.0293893 
0.25 -4.55 0.0353553 0.25 -5 0.0353553 0.25 -5 0.0353553 
0.25 -4.55 0.0353553 0.3 -4.55 0.0404508 0.3 -5 0.0404508 
0.3 -5 0.0404508 0.3 -4.55 0.0404508 0.35 -4.55 0.0445503 
0.35 -5 0.0445503 0.35 -5 0.0445503 0.35 -4.55 0.0445503 
0.4 -4.55 0.0475528 0.4 -5 0.0475528 0.4 -5 0.0475528 
0.4 -4.55 0.0475528 0.45 -4.55 0.0493844 0.45 -5 0.0493844 
0.45 -5 0.0493844 0.45 -4.55 0.0493844 0.5 -4.55 0.05 
0.5 -5 0.05 0.5 -5 0.05 0.5 -4.55 0.05 
0.55 -4.55 0.0493844 0.55 -5 0.0493844 0.55 -5 0.0493844 
0.55 -4.55 0.0493844 0.6 -4.55 0.0475528 0.6 -5 0.0475528 
0.6 -5 0.0475528 0.6 -4.55 0.0475528 0.65 -4.55 0.0445503 
0.65 -5 0.0445503 0.65 -5 0.0445503 0.65 -4.55 0.0445503 
0.7 -4.55 0.0404508 0.7 -5 0.0404508 0.7 -5 0.0404508 
0.7 -4.55 0.0404508 0.75 -4.55 0.0353553 0.75 -5 0.0353553 
0.75 -5 0.0353553 0.75 -4.55 0.0353553 0.8 -4.55 0.0293893 
0.8 -5 0.0293893 0.8 -5 0.0293893 0.8 -4.55 0.0293893 
0.85 -4.55 0.0226995 0.85 -5 0.0226995 0.85 -5 0.0226995 
0.85 -4.55 0.0226995 0.9 -4.55 0.0154509 0.9 -5 0.0154509 
0.9 -5 0.0154509 0.9 -4.55 0.0154509 0.95 -4.55 0.00782172 
0.95 -5 0.00782172 0.95 -5 0.00782172 0.95 -4.55 0.00782172 
1 -4.55 6.12323e-18 1 -5 6.12323e-18 0 -4.55 0 
0 -4.1 0 0.05 -4.1 0.00782172 0.05 -4.55 0.00782172 
0.05 -4.55 0.00782172 0.05 -4.1 0.00782172 0.1 -4.1 0.0154509 
0.1 -4.55 0.0154509 0.1 -4.55 0.0154509 0.1 -4.1 0.0154509 
0.15 -4.1 0.0226995 0.15 -4.55 0.0226995 0.15 -4.55 0.0226995 
0.15 -4.1 0.0226995 0.2 -4.1 0.0293893 0.2 -4.55 0.0293893 
0.2 -4.55 0.0293893 0.2 -4.1 0.0293893 0.25 -4.1 0.0353553 
0.25 -4.55 0.0353553 0.25 -4.55 0.0353553 0.25 -4.1 0.0353553 
0.3 -4.1 0.0404508 0.3 -4.55 0.0404508 0.3 -4.55 0.0404508 
0.3 -4.1 0.0404508 0.35 -4.1 0.0445503 0.35 -4.55 0.0445503 
0.35 -4.55 0.0445503 0.35 -4.1 0.0445503 0.4 -4.1 0.0475528 
0.4 -4.55 0.0475528 0.4 -4.55 0.0475528 0.4 -4.1 0.0475528 
0.45 -4.1 0.0493844 0.45 -4.55 0.0493844 0.45 -4.55 0.0493844 
0.45 -4.1 0.0493844 0.5 -4.1 0.05 0.5 -4.55 0.05 
0.5 -4.55 0.05 0.5 -4.1 0.05 0.55 -4.1 0.0493844 
0.55 -4.55 0.0493844 0.55 -4.55 0.0493844 0.55 -4.1 0.0493844 
0.6 -4.1 0.0475528 0.6 -4.55 0.0475528 0.6 -4.55 0.0475528 
0.6 -4.1 0.0475528 0.65 -4.1 0.0445503 0.65 -4.55 0.0445503 
0.65 -4.55 0.0445503 0.65 -4.1 0.0445503 0.7 -4.1 0.0404508 
0.7 -4.55 0.0404508 0.7 -4.55 0.0404508 0.7 -4.1 0.0404508 
0.75 -4.1 0.0353553 0.75 -4.55 0.0353553 0.75 -4.55 0.0353553 
0.75 -4.1 0.0353553 0.8 -4.1 0.0293893 0.8 -4.55 0.0293893 
0.8 -4.55 0.0293893 0.8 -4.1 0.0293893 0.85 -4.1 0.0226995 
0.85 -4.55 0.0226995 0.85 -4.55 0.0226995 0.85 -4.1 0.0226995 
0.9 -4.1 0.0154509 0.9 -4.55 0.0154509 0.9 -4.55 0.0154509 
0.9 -4.1 0.0154509 0.95 -4.1 0.00782172 0.95 -4.55 0.00782172 
0.95 -4.55 0.00782172 0.95 -4.1 0.00782172 1 -4.1 6.12323e-18 
1 -4.55 6.12323e-18 0 -4.1 0 0 -3.65 0 
0.05 -3.65 0.00782172 0.05 -4.1 0.00782172 0.05 -4.1 0.00782172 
0.05 -3.65 0.00782172 0.1 -3.65 0.0154509 0.1 -4.1 0.0154509 
0.1 -4.1 0.0154509 0.1 -3.65 0.0154509 0.15 -3.65 0.0226995 
0.15 -4.1 0.0226995 0.15 -4.1 0.0226995 0.15 -3.65 0.0226995 
0.2 -3.65 0.0293893 0.2 -4.1 0.0293893 0.2 -4.1 0.0293893 
0.2 -3.65 0.0293893 0.25 -3.65 0.0353553 0.25 -4.1 0.0353553 
0.25 -4.1 0.0353553 0.25 -3.65 0.0353553 0.3 -3.65 0.0404508 
0.3 -4.1 0.0404508 0.3 -4.1 0.0404508 0.3 -3.65 0.0404508 
0.35 -3.65 0.0445503 0.35 -4.1 0.0445503 0.35 -4.1 0.0445503 
0.35 -3.65 0.0445503 0.4 -3.65 0.0475528 0.4 -4.1 0.0475528 
0.4 -4.1 0.0475528 0.4 -3.65 0.0475528 0.45 -3.65 0.0493844 
0.45 -4.1 0.0493844 0.45 -4.1 0.0493844 0.45 -3.65 0.0493844 
0.5 -3.65 0.05 0.5 -4.1 0.05 0.5 -4.1 0.05 
0.5 -3.65 0.05 0.55 -3.65 0.0493844 0.55 -4.1 0.0493844 
0.55 -4.1 0.0493844 0.55 -3.65 0.0493844 0.6 -3.65 0.0475528 
0.6 -4.1 0.0475528 0.6 -4.1 0.0475528 0.6 -3.65 0.0475528 
0.65 -3.65 0.0445503 0.65 -4.1 0.0445503 0.65 -4.1 0.0445503 
0.65 -3.65 0.0445503 0.7 -3.65 0.0404508 0.7 -4.1 0.0404508 
0.7 -4.1 0.0404508 0.7 -3.65 0.0404508 0.75 -3.65 0.0353553 
0.75 -4.1 0.0353553 0.75 -4.1 0.0353553 0.75 -3.65 0.0353553 
0.8 -3.65 0.0293893 0.8 -4.1 0.0293893 0.8 -4.1 0.0293893 
0.8 -3.65 0.0293893 0.85 -3.65 0.0226995 0.85 -4.1 0.0226995 
0.85 -4.1 0.0226995 0.85 -3.65 0.0226995 0.9 -3.65 0.0154509 
0.9 -4.1 0.0154509 0.9 -4.1 0.0154509 0.9 -3.65 0.0154509 
0.95 -3.65 0.00782172 0.95 -4.1 0.00782172 0.95 -4.1 0.00782172 
0.95 -3.65 0.00782172 1 -3.65 6.12323e-18 1 -4.1 6.12323e-18 
0 -3.65 0 0 -3.2 0 0.05 -3.2 0.00782172 
0.05 -3.65 0.00782172 0.05 -3.65 0.00782172 0.05 -3.2 0.00782172 
0.1 -3.2 0.0154509 0.1 -3.65 0.0154509 0.1 -3.65 0.0154509 
0.1 -3.2 0.0154509 0.15 -3.2 0.0226995 0.15 -3.65 0.0226995 
0.15 -3.65 0.0226995 0.15 -3.2 0.0226995 0.2 -3.2 0.0293893 
0.2 -3.65 0.0293893 0.2 -3.65 0.0293893 0.2 -3.2 0.0293893 
0.25 -3.2 0.0353553 0.25 -3.65 0.0353553 0.25 -3.65 0.0353553 
0.25 -3.2 0.0353553 0.3 -3.2 0.0404508 0.3 -3.65 0.0404508 
0.3 -3.65 0.0404508 0.3 -3.2 0.0404508 0.35 -3.2 0.0445503 
0.35 -3.65 0.0445503 0.35 -3.65 0.0445503 0.35 -3.2 0.0445503 
0.4 -3.2 0.0475528 0.4 -3.65 0.0475528 0.4 -3.65 0.0475528 
0.4 -3.2 0.0475528 0.45 -3.2 0.0493844 0.45 -3.65 0.0493844 
0.45 -3.65 0.0493844 0.45 -3.2 0.0493844 0.5 -3.2 0.05 
0.5 -3.65 0.05 0.5 -3.65 0.05 0.5 -3.2 0.05 
0.55 -3.2 0.0493844 0.55 -3.65 0.0493844 0.55 -3.65 0.0493844 
0.55 -3.2 0.0493844 0.6 -3.2 0.0475528 0.6 -3.65 0.0475528 
0.6 -3.65 0.0475528 0.6 -3.2 0.0475528 0.65 -3.2 0.0445503 
0.65 -3.65 0.0445503 0.65 -3.65 0.0445503 0.65 -3.2 0.0445503 
0.7 -3.2 0.0404508 0.7 -3.65 0.0404508 0.7 -3.65 0.0404508 
0.7 -3.2 0.0404508 0.75 -3.2 0.0353553 0.75 -3.65 0.0353553 
0.75 -3.65 0.0353553 0.75 -3.2 0.0353553 0.8 -3.2 0.0293893 
0.8 -3.65 0.0293893 0.8 -3.65 0.0293893 0.8 -3.2 0.0293893 
0.85 -3.2 0.0226995 0.85 -3.65 0.0226995 0.85 -3.65 0.0226995 
0.85 -3.2 0.0226995 0.9 -3.2 0.0154509 0.9 -3.65 0.0154509 
0.9 -3.65 0.0154509 0.9 -3.2 0.0154509 0.95 -3.2 0.00782172 
0.95 -3.65 0.00782172 0.95 -3.65 0.00782172 0.95 -3.2 0.00782172 
1 -3.2 6.12323e-18 1 -3.65 6.12323e-18 0 -3.2 0 
0 -2.75 0 0.05 -2.75 0.00782172 0.05 -3.2 0.00782172 
0.05 -3.2 0.00782172 0.05 -2.75 0.00782172 0.1 -2.75 0.0154509 
0.1 -3.2 0.0154509 0.1 -3.2 0.0154509 0.1 -2.75 0.0154509 
0.15 -2.75 0.0226995 0.15 -3.2 0.0226995 0.15 -3.2 0.0226995 
0.15 -2.75 0.0226995 0.2 -2.75 0.0293893 0.2 -3.2 0.0293893 
0.2 -3.2 0.0293893 0.2 -2.75 0.0293893 0.25 -2.75 0.0353553 
0.25 -3.2 0.0353553 0.25 -3.2 0.0353553 0.25 -2.75 0.0353553 
0.3 -2.75 0.0404508 0.3 -3.2 0.0404508 0.3 -3.2 0.0404508 
0.3 -2.75 0.0404508 0.35 -2.75 0.0445503 0.35 -3.2 0.0445503 
0.35 -3.2 0.0445503 0.35 -2.75 0.0445503 0.4 -2.75 0.0475528 
0.4 -3.2 0.0475528 0.4 -3.2 0.0475528 0.4 -2.75 0.0475528 
0.45 -2.75 0.0493844 0.45 -3.2 0.0493844 0.45 -3.2 0.0493844 
0.45 -2.75 0.0493844 0.5 -2.75 0.05 0.5 -3.2 0.05 
0.5 -3.2 0.05 0.5 -2.75 0.05 0.55 -2.75 0.0493844 
0.55 -3.2 0.0493844 0.55 -3.2 0.0493844 0.55 -2.75 0.0493844 
0.6 -2.75 0.0475528 0.6 -3.2 0.0475528 0.6 -3.2 0.0475528 
0.6 -2.75 0.0475528 0.65 -2.75 0.0445503 0.65 -3.2 0.0445503 
0.65 -3.2 0.0445503 0.65 -2.75 0.0445503 0.7 -2.75 0.0404508 
0.7 -3.2 0.0404508 0.7 -3.2 0.0404508 0.7 -2.75 0.0404508 
0.75 -2.75 0.0353553 0.75 -3.2 0.0353553 0.75 -3.2 0.0353553 
0.75 -2.75 0.0353553 0.8 -2.75 0.0293893 0.8 -3.2 0.0293893 
0.8 -3.2 0.0293893 0.8 -2.75 0.0293893 0.85 -2.75 0.0226995 
0.85 -3.2 0.0226995 0.85 -3.2 0.0226995 0.85 -2.75 0.0226995 
0.9 -2.75 0.0154509 0.9 -3.2 0.0154509 0.9 -3.2 0.0154509 
0.9 -2.75 0.0154509 0.95 -2.75 0.00782172 0.95 -3.2 0.00782172 
0.95 -3.2 0.00782172 0.95 -2.75 0.00782172 1 -2.75 6.12323e-18 
1 -3.2 6.12323e-18 0 -2.75 0 0 -2.3 0 
0.05 -2.3 0.00782172 0.05 -2.75 0.00782172 0.05 -2.75 0.00782172 
0.05 -2.3 0.00782172 0.1 -2.3 0.0154509 0.1 -2.75 0.0154509 
0.1 -2.75 0.0154509 0.1 -2.3 0.0154509 0.15 -2.3 0.0226995 
0.15 -2.75 0.0226995 0.15 -2.75 0.0226995 0.15 -2.3 0.0226995 
0.2 -2.3 0.0293893 0.2 -2.75 0.0293893 0.2 -2.75 0.0293893 
0.2 -2.3 0.0293893 0.25 -2.3 0.0353553 0.25 -2.75 0.0353553 
0.25 -2.75 0.0353553 0.25 -2.3 0.0353553 0.3 -2.3 0.0404508 
0.3 -2.75 0.0404508 0.3 -2.75 0.0404508 0.3 -2.3 0.0404508 
0.35 -2.3 0.0445503 0.35 -2.75 0.0445503 0.35 -2.75 0.0445503 
0.35 -2.3 0.0445503 0.4 -2.3 0.0475528 0.4 -2.75 0.0475528 
0.4 -2.75 0.0475528 0.4 -2.3 0.0475528 0.45 -2.3 0.0493844 
0.45 -2.75 0.0493844 0.45 -2.75 0.0493844 0.45 -2.3 0.0493844 
0.5 -2.3 0.05 0.5 -2.75 0.05 0.5 -2.75 0.05 
0.5 -2.3 0.05 0.55 -2.3 0.0493844 0.55 -2.75 0.0493844 
0.55 -2.75 0.0493844 0.55 -2.3 0.0493844 0.6 -2.3 0.0475528 
0.6 -2.75 0.0475528 0.6 -2.75 0.0475528 0.6 -2.3 0.0475528 
0.65 -2.3 0.0445503 0.65 -2.75 0.0445503 0.65 -2.75 0.0445503 
0.65 -2.3 0.0445503 0.7 -2.3 0.0404508 0.7 -2.75 0.0404508 
0.7 -2.75 0.0404508 0.7 -2.3 0.0404508 0.75 -2.3 0.0353553 
0.75 -2.75 0.0353553 0.75 -2.75 0.0353553 0.75 -2.3 0.0353553 
0.8 -2.3 0.0293893 0.8 -2.75 0.0293893 0.8 -2.75 0.0293893 
0.8 -2.3 0.0293893 0.85 -2.3 0.0226995 0.85 -2.75 0.0226995 
0.85 -2.75 0.0226995 0.85 -2.3 0.0226995 0.9 -2.3 0.0154509 
0.9 -2.75 0.0154509 0.9 -2.75 0.0154509 0.9 -2.3 0.0154509 
0.95 -2.3 0.00782172 0.95 -2.75 0.00782172 0.95 -2.75 0.00782172 
0.95 -2.3 0.00782172 1 -2.3 6.12323e-18 1 -2.75 6.12323e-18 
0 -2.3 0 0 -1.85 0 0.05 -1.85 0.00782172 
0.05 -2.3 0.00782172 0.05 -2.3 0.00782172 0.05 -1.85 0.00782172 
0.1 -1.85 0.0154509 0.1 -2.3 0.0154509 0.1 -2.3 0.0154509 
0.1 -1.85 0.0154509 0.15 -1.85 0.0226995 0.15 -2.3 0.0226995 
0.15 -2.3 0.0226995 0.15 -1.85 0.0226995 0.2 -1.85 0.0293893 
0.2 -2.3 0.0293893 0.2 -2.3 0.0293893 0.2 -1.85 0.0293893 
0.25 -1.85 0.0353553 0.25 -2.3 0.0353553 0.25 -2.3 0.0353553 
[...]
CELL_DATA 1580
SCALARS CP float
LOOKUP_TABLE default
7.87849 0.934173 1.89495 3.94719 5.63092 7.05045 8.2326 9.17767 9.87725 
10.3225 10.5085 10.4373 10.118 9.5669 8.80584 7.85961 6.75273 5.50399 
4.11351 2.51067 4.02117 1.23642 3.74747 5.71215 7.39249 8.84427 10.0706 
11.0576 11.7873 12.2445 12.4201 12.3131 11.9313 11.2906 10.4129 9.32331 
8.04598 6.59749 4.97018 3.06608 1.11313 2.77382 4.96594 6.78351 8.37901 
9.77509 10.9607 11.9144 12.6139 13.041 13.1846 13.0424 12.6212 11.9362 
11.0086 9.86296 8.52252 7.00202 5.28975 3.27588 0.863538 3.79523 5.75624 
7.46126 8.98741 10.3347 11.4826 12.4049 13.0766 13.4776 13.5958 13.428 
12.9805 12.2682 11.3118 10.1354 8.76178 7.20445 5.44949 3.38087 2.21309 
4.48352 6.28187 7.90622 9.38174 10.6929 11.8126 12.7114 13.3623 13.7443 
13.8444 13.659 13.194 12.4639 11.4894 10.2942 8.90053 7.32146 5.54163 
3.44137 3.14179 4.95164 6.63524 8.20195 9.64088 10.9257 12.0248 12.9064 
13.5423 13.9107 13.9981 13.8005 13.3238 12.582 11.5959 10.3888 8.98286 
7.39062 5.59592 3.47693 3.78265 5.26776 6.86856 8.3927 9.80403 11.0686 
12.1517 13.0201 13.6446 14.0028 14.081 13.875 13.3904 12.6413 11.6482 
10.4345 9.02194 7.423 5.62106 3.49326 4.25958 5.48696 7.01718 8.5023 
9.88662 11.1304 12.1966 13.0508 13.6635 14.0118 14.0818 13.8693 13.3797 
12.6271 11.6319 10.4173 9.0051 7.4076 5.60826 3.48458 4.90804 5.73735 
7.1423 8.54886 9.87339 11.0685 12.0943 12.9156 13.5022 13.8313 13.8886 
13.6697 13.1797 12.4321 11.4468 10.2468 8.85329 7.27864 5.50695 3.41879 
8.23568 6.82089 7.48735 8.43734 9.43336 10.3826 11.2266 11.9208 12.429 
12.7235 12.7852 12.6044 12.1805 11.5212 10.64 9.55441 8.28092 6.82862 
5.18112 3.22493 8.23568 6.82089 7.48735 8.43734 9.43336 10.3826 11.2266 
11.9208 12.429 12.7235 12.7852 12.6044 12.1805 11.5212 10.64 9.55441 
8.28092 6.82862 5.18112 3.22493 4.90804 5.73735 7.1423 8.54886 9.87339 
11.0685 12.0943 12.9156 13.5022 13.8313 13.8886 13.6697 13.1797 12.4321 
11.4468 10.2468 8.85329 7.27864 5.50695 3.41879 4.25958 5.48696 7.01718 
8.5023 9.88662 11.1304 12.1966 13.0508 13.6635 14.0118 14.0818 13.8693 
13.3797 12.6271 11.6319 10.4173 9.0051 7.4076 5.60826 3.48458 3.78265 
5.26776 6.86856 8.3927 9.80403 11.0686 12.1517 13.0201 13.6446 14.0028 
14.081 13.875 13.3904 12.6413 11.6482 10.4345 9.02194 7.423 5.62106 
3.49326 3.14179 4.95164 6.63524 8.20195 9.64088 10.9257 12.0248 12.9064 
13.5423 13.9107 13.9981 13.8005 13.3238 12.582 11.5959 10.3888 8.98286 
7.39062 5.59592 3.47693 2.21309 4.48352 6.28187 7.90622 9.38174 10.6929 
11.8126 12.7114 13.3623 13.7443 13.8444 13.659 13.194 12.4639 11.4894 
10.2942 8.90053 7.32146 5.54163 3.44137 0.863538 3.79523 5.75624 7.46126 
8.98741 10.3347 11.4826 12.4049 13.0766 13.4776 13.5958 13.428 12.9805 
12.2682 11.3118 10.1354 8.76178 7.20445 5.44949 3.38087 1.11313 2.77382 
4.96594 6.78351 8.37901 9.77509 10.9607 11.9144 12.6139 13.041 13.1846 
13.0424 12.6212 11.9362 11.0086 9.86296 8.52252 7.00202 5.28975 3.27588 
4.02117 1.23642 3.74747 5.71215 7.39249 8.84427 10.0706 11.0576 11.7873 
12.2445 12.4201 12.3131 11.9313 11.2906 10.4129 9.32331 8.04598 6.59749 
4.97018 3.06608 7.87849 0.934173 1.89495 3.94719 5.63092 7.05045 8.2326 
9.17767 9.87725 10.3225 10.5085 10.4373 10.118 9.5669 8.80584 7.85961 
6.75273 5.50399 4.11351 2.51067 1.03215 0.703883 0.714875 0.814001 0.997879 
1.32072 1.96716 4.22865 1.57993 0.244586 1.71613 1.11531 1.0858 1.18304 
1.37751 1.71028 2.35054 4.56753 1.81492 0.262477 2.1642 1.36494 1.29164 
1.36797 1.5472 1.86419 2.48431 4.67305 1.87869 0.241771 2.4421 1.51332 
1.40841 1.46783 1.63434 1.93939 2.54657 4.71957 1.90392 0.224178 2.59866 
1.59451 1.47047 1.51939 1.67808 1.97613 2.57617 4.74099 1.9146 0.213257 
2.65926 1.62389 1.49143 1.53562 1.69091 1.98614 2.58363 4.74582 1.91622 
0.20837 2.62986 1.6036 1.47199 1.51618 1.67164 1.96766 2.56682 4.7319 
1.90691 0.208308 2.50166 1.52366 1.39895 1.44424 1.60007 1.89805 2.50249 
4.67791 1.87063 0.208193 2.27183 1.36841 1.24131 1.26826 1.3989 1.67192 
2.26317 4.45439 1.70798 0.173003 2.03272 1.18259 1.0151 0.952275 0.920418 
0.891683 0.844399 0.755133 0.60749 0.395035 2.03272 1.18259 1.0151 0.952275 
0.920418 0.891683 0.844399 0.755133 0.60749 0.395035 2.27183 1.36841 1.24131 
1.26826 1.3989 1.67192 2.26317 4.45439 1.70798 0.173003 2.50166 1.52366 
1.39895 1.44424 1.60007 1.89805 2.50249 4.67791 1.87063 0.208193 2.62986 
1.6036 1.47199 1.51618 1.67164 1.96766 2.56682 4.7319 1.90691 0.208308 
2.65926 1.62389 1.49143 1.53562 1.69091 1.98614 2.58363 4.74582 1.91622 
0.20837 2.59866 1.59451 1.47047 1.51939 1.67808 1.97613 2.57617 4.74099 
1.9146 0.213257 2.4421 1.51332 1.40841 1.46783 1.63434 1.93939 2.54657 
4.71957 1.90392 0.224178 2.1642 1.36494 1.29164 1.36797 1.5472 1.86419 
2.48431 4.67305 1.87869 0.241771 1.71613 1.11531 1.0858 1.18304 1.37751 
1.71028 2.35054 4.56753 1.81492 0.262477 1.03215 0.703883 0.714875 0.814001 
0.997879 1.32072 1.96716 4.22865 1.57993 0.244586 5.74771e-15 2.77775e-15 2.5392e-15 
1.53165e-15 1.87404e-15 1.54224e-15 1.27296e-15 9.3236e-16 3.33135e-16 4.43802e-16 6.37203e-15 2.56438e-15 
2.52123e-15 2.09634e-15 1.63816e-15 1.17017e-15 1.30645e-15 6.52254e-16 6.27081e-16 5.83039e-16 6.74067e-15 
3.62393e-15 2.45425e-15 2.18525e-15 1.86917e-15 1.28702e-15 9.27482e-16 6.2282e-16 6.52595e-16 1.0422e-15 
8.22839e-15 3.82436e-15 2.8147e-15 3.04565e-15 1.75295e-15 2.23015e-15 1.41309e-15 1.05481e-15 9.47764e-16 
3.41446e-16 1.01393e-14 5.45679e-15 3.04977e-15 2.36774e-15 2.6268e-15 1.79993e-15 1.81761e-15 1.18336e-15 
1.24693e-15 2.31235e-17 1.25433e-14 6.74785e-15 3.90273e-15 3.72455e-15 2.96145e-15 2.34428e-15 2.58913e-15 
1.75271e-15 7.69157e-16 1.21704e-15 1.6129e-14 7.63666e-15 5.41845e-15 5.20288e-15 4.00182e-15 2.31589e-15 
2.86705e-15 2.91158e-15 4.84697e-16 3.96772e-16 2.12192e-14 9.874e-15 6.61536e-15 6.2708e-15 4.73252e-15 
3.9347e-15 3.19974e-15 3.09013e-15 8.18343e-16 8.71604e-16 2.93082e-14 1.35896e-14 9.71743e-15 6.57006e-15 
6.5265e-15 4.92009e-15 3.06766e-15 1.12388e-15 2.32041e-15 1.75443e-15 4.33959e-14 2.05111e-14 1.33219e-14 
7.92386e-15 1.04517e-14 2.63392e-15 6.03111e-15 1.98865e-15 3.08188e-16 3.17927e-15 1.46617e-16 2.22482e-16 
1.83882e-16 3.69876e-18 3.06607e-16 4.51278e-17 5.96998e-16 4.24738e-17 2.97413e-16 3.41793e-16 3.78765e-17 
1.06219e-16 5.53509e-16 2.35794e-16 3.15081e-17 3.25212e-16 9.05456e-16 6.24542e-16 5.93633e-17 8.49477e-16 
5.70295e-16 5.53718e-16 2.35964e-16 6.82086e-16 6.68945e-16 4.14601e-16 6.45705e-16 1.07777e-15 8.75414e-17 
1.68889e-15 4.10323e-16 3.08275e-17 6.96725e-17 3.45115e-16 1.34039e-15 1.02828e-15 7.44905e-16 2.82238e-16 
5.26302e-16 7.45926e-16 1.37238e-15 9.15423e-16 1.37465e-15 1.38079e-15 6.53549e-18 9.28091e-17 1.09048e-15 
1.30471e-15 2.12296e-17 5.15266e-16 1.65088e-15 4.91786e-17 2.25768e-16 7.90808e-16 2.33747e-15 1.47243e-17 
8.85745e-16 2.13116e-16 4.02102e-15 1.15346e-15 1.02163e-15 1.83912e-15 3.62034e-15 3.79518e-15 1.38277e-15 
2.95656e-15 6.71486e-15 3.2938e-15 3.57984e-15 1.21064e-15 5.45362e-15 3.7897e-15 2.54884e-15 5.15807e-15 
8.2541e-16 4.08491e-15 5.40212e-15 2.68581e-15 5.65533e-15 2.24929e-15 6.99517e-16 2.67902e-15 4.99698e-15 
2.58551e-16 2.71699e-15 1.14873e-15 3.05627e-15 8.26819e-16 3.95904e-15 1.42081e-15 2.65751e-15 4.88258e-15 
1.97122e-15 9.96077e-15 2.87287e-15 3.8314e-15 2.0163e-14 1.63298e-15 4.81177e-15 3.03315e-15 2.56775e-15 
3.11945e-15 1.24785e-14 9.62215e-16 2.90299e-15 2.32279e-14 3.55345e-16 7.7887e-15 7.34067e-15 5.55019e-15 
5.27278e-15 3.11125e-15 1.9618e-15 7.46138e-15 1.21606e-14 2.72085e-15 8.19729e-15 6.85385e-15 1.14115e-14 
1.37039e-15 1.6948e-14 9.91506e-15 5.8443e-15 6.72162e-15 5.09023e-15 1.53034e-14 1.08369e-14 1.01283e-14 
5.39381e-15 8.77972e-15 1.52317e-14 1.16597e-14 1.07349e-14 3.96367e-15 1.26444e-15 4.38899e-15 4.92309e-15 
6.89514e-15 1.42578e-15 6.91584e-16 3.96743e-15 3.05903e-15 1.15315e-14 1.22255e-14 8.10855e-17 3.72365e-15 
3.14669e-15 5.71575e-15 4.48365e-15 1.74821e-14 7.82154e-15 6.70737e-15 4.05782e-15 6.37182e-15 5.48851e-15 
8.25788e-15 9.28944e-15 1.9735e-15 5.54384e-15 7.17451e-15 1.31916e-14 1.04849e-14 6.17363e-15 5.30777e-16 
3.93587e-15 7.15584e-15 5.22364e-15 1.08668e-14 1.38512e-14 5.22872e-16 3.40979e-15 3.34273e-15 3.74042e-15 
2.72896e-14 5.60002e-15 2.07385e-15 1.01029e-14 1.65022e-14 3.9749e-15 3.61366e-15 1.79041e-14 7.23407e-15 
1.69533e-14 7.0873e-16 1.01915e-14 1.59485e-15 1.7852e-14 1.22534e-14 5.74222e-15 8.4614e-15 2.43511e-15 
3.79638e-15 1.8368e-14 3.04945e-15 1.303e-14 1.35102e-14 1.19952e-14 1.65163e-14 1.64878e-14 6.99626e-15 
6.21055e-15 1.25407e-14 1.26155e-14 6.34956e-15 1.93016e-14 1.56363e-14 1.36219e-14 3.82319e-15 5.9948e-15 
3.03022e-15 8.01587e-16 1.02135e-14 3.03538e-15 8.99434e-15 1.14754e-14 2.15323e-14 3.84632e-15 8.59467e-15 
1.04368e-15 1.15895e-14 1.30146e-16 1.01804e-16 1.49352e-16 4.74225e-17 2.85316e-16 2.24207e-16 3.70283e-16 
5.83514e-17 8.59479e-18 3.97521e-16 9.26409e-17 1.29746e-16 6.70136e-17 3.91676e-16 7.03089e-17 3.6535e-16 
1.02398e-16 2.53745e-16 4.44972e-16 1.4529e-16 1.09746e-16 5.29882e-16 1.96593e-16 2.73105e-16 8.60073e-17 
6.05131e-16 8.21503e-16 9.15344e-16 8.86957e-16 9.15641e-17 3.82268e-16 3.04226e-16 1.27409e-16 3.89678e-16 
5.67222e-18 2.58878e-17 3.04254e-16 1.567e-16 3.94326e-16 1.91842e-16 4.25812e-16 7.23757e-16 3.81307e-16 
3.15308e-16 4.23913e-17 5.29182e-16 2.44801e-16 1.10582e-15 9.1321e-16 6.33812e-16 1.21821e-15 1.47624e-16 
1.49129e-16 9.38975e-16 4.33578e-16 1.1502e-15 6.0616e-16 1.63209e-15 2.57282e-15 6.79342e-16 1.51567e-15 
1.58986e-15 1.72573e-15 3.39036e-15 1.03444e-15 2.65648e-15 3.55115e-15 8.68928e-16 6.79898e-15 4.44276e-15 
4.3694e-15 6.09487e-16 6.52486e-15 4.73816e-15 5.83121e-16 4.36123e-15 2.85203e-15 2.58393e-15 3.77021e-15 
3.61432e-15 1.62777e-15 7.03609e-15 4.18021e-16 1.42762e-15 1.31268e-15 9.01314e-16 2.70912e-15 1.84979e-15 
2.08785e-16 4.64547e-16 5.54136e-16 1.17584e-15 1.2346e-15 3.11489e-15 2.14952e-15 6.4087e-15 1.66644e-15 
8.89224e-16 3.16666e-15 3.19416e-15 6.14773e-15 3.23306e-15 1.22458e-15 4.89554e-15 4.31311e-15 1.33977e-14 
3.85129e-16 4.68618e-15 2.08228e-15 4.26082e-15 1.9266e-15 5.82785e-16 1.07406e-14 6.90555e-16 4.66446e-15 
1.28507e-15 7.9139e-15 1.26099e-15 3.08825e-16 4.38245e-15 6.78822e-15 3.84111e-15 2.85111e-16 2.6759e-15 
2.43971e-15 2.70905e-15 1.00217e-14 1.48982e-15 6.07011e-15 3.5239e-15 1.48356e-15 4.47882e-15 3.93477e-15 
4.02746e-15 9.82335e-16 1.79289e-16 2.08994e-15 1.2317e-15 4.35282e-15 1.67632e-15 1.12412e-14 5.20778e-15 
2.21894e-15 4.12749e-15 1.56125e-15 7.91056e-15 4.4706e-15 4.53406e-15 6.9658e-15 8.12882e-15 1.33342e-14 
1.99212e-14 8.3138e-15 4.01254e-15 3.95796e-15 1.0539e-14 1.85411e-15 3.07244e-15 2.84862e-17 4.95856e-15 
1.28815e-14 1.70988e-15 8.10771e-15 5.20632e-15 3.31994e-15 1.08785e-15 1.35656e-14 4.22249e-15 2.79362e-16 
4.7335e-15 6.56493e-15 1.3609e-15 3.64781e-15 5.13093e-15 5.78947e-15 4.4472e-15 9.30162e-15 1.98743e-14 
1.44276e-14 5.83757e-15 1.37241e-14 1.27541e-14 3.8847e-16 3.49086e-15 1.11139e-14 8.8453e-15 3.70204e-15 
5.34873e-15 1.63978e-14 7.82771e-15 2.42473e-15 7.08273e-16 1.08707e-15 4.27268e-15 1.50312e-14 2.08731e-15 
3.83499e-15 9.27581e-15 1.41939e-14 3.54411e-15 4.64583e-15 9.38189e-15 1.58748e-14 1.36455e-15 9.38058e-15 
1.06877e-15 5.8423e-15 4.03358e-15 4.95543e-15 1.62239e-15 3.96893e-15 1.3761e-14 3.11261e-15 8.50484e-16 
2.69958e-14 1.00771e-14 1.65752e-14 2.85291e-14 1.03281e-14 1.16634e-14 2.88337 1.0494 0.635396 
0.472579 0.396486 0.357864 0.337598 0.327137 0.322287 0.320844 0.321592 0.323831 
0.327145 0.331285 0.336097 0.341487 0.347401 0.35381 0.3607 0.368072 0.375934 
0.3843 0.393193 0.402637 0.412662 0.4233 0.43459 0.446571 0.459287 0.472787 
0.487122 0.502348 0.518526 0.535721 0.554002 0.573446 0.594132 0.616149 0.63959 
0.664555 0.691155 0.719505 0.749732 0.78197 0.816366 0.853077 0.892271 0.93413 
0.97885 1.02664 1.07773 1.13236 1.19079 1.25331 1.3202 1.3918 1.46844 
1.55047 1.63827 1.73224 1.83275 1.94019 2.05491 2.17721 2.30727 2.44513 
2.59054 2.74303 2.90188 3.06693 3.28409 3.45656 3.60544 3.73885 3.85757 
3.96119 4.04889 4.11964 4.17221 4.20508 4.21644 4.20427 4.16648 4.10128 
4.00757 3.88545 3.73665 3.56486 3.37573 3.17635 2.97421 2.7759 2.58614 
2.40757 2.24125 2.08722 1.94501 1.81392 1.69314 1.58185 1.47927 1.38467 
1.29735 1.2167 1.14214 1.07314 1.00923 0.949991 0.895019 0.843963 0.7965 
0.752337 0.711208 0.67287 0.637102 0.603704 0.572491 0.543297 0.515967 0.490364 
0.466357 0.443831 0.422677 0.402797 0.3841 0.366504 0.349931 0.334312 0.31958 
0.305678 0.292549 0.280142 0.268411 0.257311 0.246803 0.23685 0.227417 0.218471 
0.209983 0.201927 0.194275 0.187004 0.180093 0.17352 0.167266 0.161314 0.155647 
0.15025 0.145107 0.140206 0.135533 0.131078 0.126828 0.122775 0.118907 0.115217 
0.111696 0.108335 0.105128 0.102067 0.0991459 0.0963589 0.0937001 0.091164 0.0887455 
0.0864398 0.0842424 0.0821491 0.0801557 0.0782584 0.0764535 0.0747376 0.0731073 0.0715592 
0.0700904 0.0686978 0.0673783 0.0661293 0.0649477 0.0638307 0.0627755 0.0617793 0.0608393 
0.0599524 0.0591157 0.0583263 0.0575809 0.0568763 0.0562091 0.0555759 0.0549731 0.0543966 
0.0538427 0.053307 0.0527851 0.0522724 0.0517639 0.0512543 0.0507382 0.0502097 0.0496623 
0.0490895 0.0484837 0.0478372 0.0471411 0.0463858 0.0455605 0.0446528 0.0436485 0.0425308 
0.0412798 0.039871 0.0382733 0.0364469 0.0343378 0.0318698 0.0289285 0.0253242 0.020691 
0.0140852 2.90214 1.05623 0.639532 0.475656 0.399067 0.360194 0.339795 0.329267 
0.324385 0.322933 0.323686 0.325939 0.329275 0.333442 0.338284 0.34371 0.349663 
0.356113 0.363048 0.370468 0.378381 0.386802 0.395753 0.405258 0.415348 0.426056 
0.437419 0.449478 0.462277 0.475864 0.490293 0.505618 0.521902 0.539208 0.557609 
0.577179 0.598 0.62016 0.643753 0.668881 0.695654 0.724189 0.754612 0.78706 
0.82168 0.85863 0.898079 0.94021 0.985222 1.03332 1.08475 1.13973 1.19855 
1.26147 1.3288 1.40086 1.478 1.56056 1.64894 1.74351 1.84468 1.95282 
2.06829 2.19138 2.32229 2.46104 2.60741 2.76088 2.92077 3.08689 3.28409 
3.45656 3.60544 3.73885 3.85757 3.96119 4.04889 4.11964 4.17221 4.20508 
4.21644 4.20427 4.16648 4.10128 4.00757 3.88545 3.73665 3.56486 3.37573 
3.17635 2.97421 2.7759 2.58614 2.40757 2.24125 2.08722 1.94501 1.81392 
1.69314 1.58185 1.47927 1.38467 1.29735 1.2167 1.14214 1.07314 1.00923 
0.949991 0.895019 0.843963 0.7965 0.752337 0.711208 0.67287 0.637102 0.603704 
0.572491 0.543297 0.515967 0.490364 0.466357 0.443831 0.422677 0.402797 0.3841 
0.366504 0.349931 0.334312 0.31958 0.305678 0.292549 0.280142 0.268411 0.257311 
0.246803 0.23685 0.227417 0.218471 0.209983 0.201927 0.194275 0.187004 0.180093 
0.17352 0.167266 0.161314 0.155647 0.15025 0.145107 0.140206 0.135533 0.131078 
0.126828 0.122775 0.118907 0.115217 0.111696 0.108335 0.105128 0.102067 0.0991459 
0.0963589 0.0937001 0.091164 0.0887455 0.0864398 0.0842424 0.0821491 0.0801557 0.0782584 
0.0764535 0.0747376 0.0731073 0.0715592 0.0700904 0.0686978 0.0673783 0.0661293 0.0649477 
0.0638307 0.0627755 0.0617793 0.0608393 0.0599524 0.0591157 0.0583263 0.0575809 0.0568763 
0.0562091 0.0555759 0.0549731 0.0543966 0.0538427 0.053307 0.0527851 0.0522724 0.0517639 
0.0512543 0.0507382 0.0502097 0.0496623 0.0490895 0.0484837 0.0478372 0.0471411 0.0463858 
0.0455605 0.0446528 0.0436485 0.0425308 0.0412798 0.039871 0.0382733 0.0364469 0.0343378 
0.0318698 0.0289285 0.0253242 0.020691 0.0140852 
METADATA
INFORMATION 0

FIELD FieldData 5
gid 1 1580 float
0 1 2 3 4 5 6 7 8 
9 10 11 12 13 14 15 16 17 
18 19 20 21 22 23 24 25 26 
27 28 29 30 31 32 33 34 35 
36 37 38 39 40 41 42 43 44 
45 46 47 48 49 50 51 52 53 
54 55 56 57 58 59 60 61 62 
63 64 65 66 67 68 69 70 71 
72 73 74 75 76 77 78 79 80 
81 82 83 84 85 86 87 88 89 
90 91 92 93 94 95 96 97 98 
99 100 101 102 103 104 105 106 107 
108 109 110 111 112 113 114 115 116 
117 118 119 120 121 122 123 124 125 
126 127 128 129 130 131 132 133 134 
135 136 137 138 139 140 141 142 143 
144 145 146 147 148 149 150 151 152 
153 154 155 156 157 158 159 160 161 
162 163 164 165 166 167 168 169 170 
171 172 173 174 175 176 177 178 179 
180 181 182 183 184 185 186 187 188 
189 190 191 192 193 194 195 196 197 
198 199 200 201 202 203 204 205 206 
207 208 209 210 211 212 213 214 215 
216 217 218 219 220 221 222 223 224 
225 226 227 228 229 230 231 232 233 
234 235 236 237 238 239 240 241 242 
243 244 245 246 247 248 249 250 251 
252 253 254 255 256 257 258 259 260 
261 262 263 264 265 266 267 268 269 
270 271 272 273 274 275 276 277 278 
279 280 281 282 283 284 285 286 287 
288 289 290 291 292 293 294 295 296 
297 298 299 300 301 302 303 304 305 
306 307 308 309 310 311 312 313 314 
315 316 317 318 319 320 321 322 323 
324 325 326 327 328 329 330 331 332 
333 334 335 336 337 338 339 340 341 
342 343 344 345 346 347 348 349 350 
351 352 353 354 355 356 357 358 359 
360 361 362 363 364 365 366 367 368 
369 370 371 372 373 374 375 376 377 
378 379 380 381 382 383 384 385 386 
387 388 389 390 391 392 393 394 395 
396 397 398 399 400 401 402 403 404 
405 406 407 408 409 410 411 412 413 
414 415 416 417 418 419 420 421 422 
423 424 425 426 427 428 429 430 431 
432 433 434 435 436 437 438 439 440 
441 442 443 444 445 446 447 448 449 
450 451 452 453 454 455 456 457 458 
459 460 461 462 463 464 465 466 467 
468 469 470 471 472 473 474 475 476 
477 478 479 480 481 482 483 484 485 
486 487 488 489 490 491 492 493 494 
495 496 497 498 499 500 501 502 503 
504 505 506 507 508 509 510 511 512 
513 514 515 516 517 518 519 520 521 
522 523 524 525 526 527 528 529 530 
531 532 533 534 535 536 537 538 539 
540 541 542 543 544 545 546 547 548 
549 550 551 552 553 554 555 556 557 
558 559 560 561 562 563 564 565 566 
567 568 569 570 571 572 573 574 575 
576 577 578 579 580 581 582 583 584 
585 586 587 588 589 590 591 592 593 
594 595 596 597 598 599 600 601 602 
603 604 605 606 607 608 609 610 611 
612 613 614 615 616 617 618 619 620 
621 622 623 624 625 626 627 628 629 
630 631 632 633 634 635 636 637 638 
639 640 641 642 643 644 645 646 647 
648 649 650 651 652 653 654 655 656 
657 658 659 660 661 662 663 664 665 
666 667 668 669 670 671 672 673 674 
675 676 677 678 679 680 681 682 683 
684 685 686 687 688 689 690 691 692 
693 694 695 696 697 698 699 700 701 
702 703 704 705 706 707 708 709 710 
711 712 713 714 715 716 717 718 719 
720 721 722 723 724 725 726 727 728 
729 730 731 732 733 734 735 736 737 
738 739 740 741 742 743 744 745 746 
747 748 749 750 751 752 753 754 755 
756 757 758 759 760 761 762 763 764 
765 766 767 768 769 770 771 772 773 
774 775 776 777 778 779 780 781 782 
783 784 785 786 787 788 789 790 791 
792 793 794 795 796 797 798 799 800 
801 802 803 804 805 806 807 808 809 
810 811 812 813 814 815 816 817 818 
819 820 821 822 823 824 825 826 827 
828 829 830 831 832 833 834 835 836 
837 838 839 840 841 842 843 844 845 
846 847 848 849 850 851 852 853 854 
855 856 857 858 859 860 861 862 863 
864 865 866 867 868 869 870 871 872 
873 874 875 876 877 878 879 880 881 
882 883 884 885 886 887 888 889 890 
891 892 893 894 895 896 897 898 899 
900 901 902 903 904 905 906 907 908 
909 910 911 912 913 914 915 916 917 
918 919 920 921 922 923 924 925 926 
927 928 929 930 931 932 933 934 935 
936 937 938 939 940 941 942 943 944 
945 946 947 948 949 950 951 952 953 
954 955 956 957 958 959 960 961 962 
963 964 965 966 967 968 969 970 971 
972 973 974 975 976 977 978 979 980 
981 982 983 984 985 986 987 988 989 
990 991 992 993 994 995 996 997 998 
999 1000 1001 1002 1003 1004 1005 1006 1007 
1008 1009 1010 1011 1012 1013 1014 1015 1016 
1017 1018 1019 1020 1021 1022 1023 1024 1025 
1026 1027 1028 1029 1030 1031 1032 1033 1034 
1035 1036 1037 1038 1039 1040 1041 1042 1043 
1044 1045 1046 1047 1048 1049 1050 1051 1052 
1053 1054 1055 1056 1057 1058 1059 1060 1061 
1062 1063 1064 1065 1066 1067 1068 1069 1070 
1071 1072 1073 1074 1075 1076 1077 1078 1079 
1080 1081 1082 1083 1084 1085 1086 1087 1088 
1089 1090 1091 1092 1093 1094 1095 1096 1097 
1098 1099 1100 1101 1102 1103 1104 1105 1106 
1107 1108 1109 1110 1111 1112 1113 1114 1115 