# vtk DataFile Version 5.1
vtk output
ASCII
DATASET POLYDATA
POINTS 6320 float
0 -5 0 0 -4.55 0 0.05 -4.55 0.00782172 
0.05 -5 0.00782172 0.05 -5 0.00782172 0.05 -4.55 0.00782172 
0.1 -4.55 0.0154509 0.1 -5 0.0154509 0.1 -5 0.0154509 
0.1 -4.55 0.0154509 0.15 -4.55 0.0226995 0.15 -5 0.0226995 
0.15 -5 0.0226995 0.15 -4.55 0.0226995 0.2 -4.55 0.0293893 
0.2 -5 0.0293893 0.2 -5 0.0293893 0.2 -4.55 0.0293893 
0.25 -4.55 0.0353553 0.25 -5 0.0353553 0.25 -5 0.0353553 
0.25 -4.55 0.0353553 0.3 -4.55 0.0404508 0.3 -5 0.0404508 
0.3 -5 0.0404508 0.3 -4.55 0.0404508 0.35 -4.55 0.0445503 
0.35 -5 0.0445503 0.35 -5 0.0445503 0.35 -4.55 0.0445503 
0.4 -4.55 0.0475528 0.4 -5 0.0475528 0.4 -5 0.0475528 
0.4 -4.55 0.0475528 0.45 -4.55 0.0493844 0.45 -5 0.0493844 
0.45 -5 0.0493844 0.45 -4.55 0.0493844 0.5 -4.55 0.05 
0.5 -5 0.05 0.5 -5 0.05 0.5 -4.55 0.05 
0.55 -4.55 0.0493844 0.55 -5 0.0493844 0.55 -5 0.0493844 
0.55 -4.55 0.0493844 0.6 -4.55 0.0475528 0.6 -5 0.0475528 
0.6 -5 0.0475528 0.6 -4.55 0.0475528 0.65 -4.55 0.0445503 
0.65 -5 0.0445503 0.65 -5 0.0445503 0.65 -4.55 0.0445503 
0.7 -4.55 0.0404508 0.7 -5 0.0404508 0.7 -5 0.0404508 
0.7 -4.55 0.0404508 0.75 -4.55 0.0353553 0.75 -5 0.0353553 
0.75 -5 0.0353553 0.75 -4.55 0.0353553 0.8 -4.55 0.0293893 
0.8 -5 0.0293893 0.8 -5 0.0293893 0.8 -4.55 0.0293893 
0.85 -4.55 0.0226995 0.85 -5 0.0226995 0.85 -5 0.0226995 
0.85 -4.55 0.0226995 0.9 -4.55 0.0154509 0.9 -5 0.0154509 
0.9 -5 0.0154509 0.9 -4.55 0.0154509 0.95 -4.55 0.00782172 
0.95 -5 0.00782172 0.95 -5 0.00782172 0.95 -4.55 0.00782172 
1 -4.55 6.12323e-18 1 -5 6.12323e-18 0 -4.55 0 
0 -4.1 0 0.05 -4.1 0.00782172 0.05 -4.55 0.00782172 
0.05 -4.55 0.00782172 0.05 -4.1 0.00782172 0.1 -4.1 0.0154509 
0.1 -4.55 0.0154509 0.1 -4.55 0.0154509 0.1 -4.1 0.0154509 
0.15 -4.1 0.0226995 0.15 -4.55 0.0226995 0.15 -4.55 0.0226995 
0.15 -4.1 0.0226995 0.2 -4.1 0.0293893 0.2 -4.55 0.0293893 
0.2 -4.55 0.0293893 0.2 -4.1 0.0293893 0.25 -4.1 0.0353553 
0.25 -4.55 0.0353553 0.25 -4.55 0.0353553 0.25 -4.1 0.0353553 
0.3 -4.1 0.0404508 0.3 -4.55 0.0404508 0.3 -4.55 0.0404508 
0.3 -4.1 0.0404508 0.35 -4.1 0.0445503 0.35 -4.55 0.0445503 
0.35 -4.55 0.0445503 0.35 -4.1 0.0445503 0.4 -4.1 0.0475528 
0.4 -4.55 0.0475528 0.4 -4.55 0.0475528 0.4 -4.1 0.0475528 
0.45 -4.1 0.0493844 0.45 -4.55 0.0493844 0.45 -4.55 0.0493844 
0.45 -4.1 0.0493844 0.5 -4.1 0.05 0.5 -4.55 0.05 
0.5 -4.55 0.05 0.5 -4.1 0.05 0.55 -4.1 0.0493844 
0.55 -4.55 0.0493844 0.55 -4.55 0.0493844 0.55 -4.1 0.0493844 
0.6 -4.1 0.0475528 0.6 -4.55 0.0475528 0.6 -4.55 0.0475528 
0.6 -4.1 0.0475528 0.65 -4.1 0.0445503 0.65 -4.55 0.0445503 
0.65 -4.55 0.0445503 0.65 -4.1 0.0445503 0.7 -4.1 0.0404508 
0.7 -4.55 0.0404508 0.7 -4.55 0.0404508 0.7 -4.1 0.0404508 
0.75 -4.1 0.0353553 0.75 -4.55 0.0353553 0.75 -4.55 0.0353553 
0.75 -4.1 0.0353553 0.8 -4.1 0.0293893 0.8 -4.55 0.0293893 
0.8 -4.55 0.0293893 0.8 -4.1 0.0293893 0.85 -4.1 0.0226995 
0.85 -4.55 0.0226995 0.85 -4.55 0.0226995 0.85 -4.1 0.0226995 
0.9 -4.1 0.0154509 0.9 -4.55 0.0154509 0.9 -4.55 0.0154509 
0.9 -4.1 0.0154509 0.95 -4.1 0.00782172 0.95 -4.55 0.00782172 
0.95 -4.55 0.00782172 0.95 -4.1 0.00782172 1 -4.1 6.12323e-18 
1 -4.55 6.12323e-18 0 -4.1 0 0 -3.65 0 
0.05 -3.65 0.00782172 0.05 -4.1 0.00782172 0.05 -4.1 0.00782172 
0.05 -3.65 0.00782172 0.1 -3.65 0.0154509 0.1 -4.1 0.0154509 
0.1 -4.1 0.0154509 0.1 -3.65 0.0154509 0.15 -3.65 0.0226995 
0.15 -4.1 0.0226995 0.15 -4.1 0.0226995 0.15 -3.65 0.0226995 
0.2 -3.65 0.0293893 0.2 -4.1 0.0293893 0.2 -4.1 0.0293893 
0.2 -3.65 0.0293893 0.25 -3.65 0.0353553 0.25 -4.1 0.0353553 
0.25 -4.1 0.0353553 0.25 -3.65 0.0353553 0.3 -3.65 0.0404508 
0.3 -4.1 0.0404508 0.3 -4.1 0.0404508 0.3 -3.65 0.0404508 
0.35 -3.65 0.0445503 0.35 -4.1 0.0445503 0.35 -4.1 0.0445503 
0.35 -3.65 0.0445503 0.4 -3.65 0.0475528 0.4 -4.1 0.0475528 
0.4 -4.1 0.0475528 0.4 -3.65 0.0475528 0.45 -3.65 0.0493844 
0.45 -4.1 0.0493844 0.45 -4.1 0.0493844 0.45 -3.65 0.0493844 
0.5 -3.65 0.05 0.5 -4.1 0.05 0.5 -4.1 0.05 
0.5 -3.65 0.05 0.55 -3.65 0.0493844 0.55 -4.1 0.0493844 
0.55 -4.1 0.0493844 0.55 -3.65 0.0493844 0.6 -3.65 0.0475528 
0.6 -4.1 0.0475528 0.6 -4.1 0.0475528 0.6 -3.65 0.0475528 
0.65 -3.65 0.0445503 0.65 -4.1 0.0445503 0.65 -4.1 0.0445503 
0.65 -3.65 0.0445503 0.7 -3.65 0.0404508 0.7 -4.1 0.0404508 
0.7 -4.1 0.0404508 0.7 -3.65 0.0404508 0.75 -3.65 0.0353553 
0.75 -4.1 0.0353553 0.75 -4.1 0.0353553 0.75 -3.65 0.0353553 
0.8 -3.65 0.0293893 0.8 -4.1 0.0293893 0.8 -4.1 0.0293893 
0.8 -3.65 0.0293893 0.85 -3.65 0.0226995 0.85 -4.1 0.0226995 
0.85 -4.1 0.0226995 0.85 -3.65 0.0226995 0.9 -3.65 0.0154509 
0.9 -4.1 0.0154509 0.9 -4.1 0.0154509 0.9 -3.65 0.0154509 
0.95 -3.65 0.00782172 0.95 -4.1 0.00782172 0.95 -4.1 0.00782172 
0.95 -3.65 0.00782172 1 -3.65 6.12323e-18 1 -4.1 6.12323e-18 
0 -3.65 0 0 -3.2 0 0.05 -3.2 0.00782172 
0.05 -3.65 0.00782172 0.05 -3.65 0.00782172 0.05 -3.2 0.00782172 
0.1 -3.2 0.0154509 0.1 -3.65 0.0154509 0.1 -3.65 0.0154509 
0.1 -3.2 0.0154509 0.15 -3.2 0.0226995 0.15 -3.65 0.0226995 
0.15 -3.65 0.0226995 0.15 -3.2 0.0226995 0.2 -3.2 0.0293893 
0.2 -3.65 0.0293893 0.2 -3.65 0.0293893 0.2 -3.2 0.0293893 
0.25 -3.2 0.0353553 0.25 -3.65 0.0353553 0.25 -3.65 0.0353553 
0.25 -3.2 0.0353553 0.3 -3.2 0.0404508 0.3 -3.65 0.0404508 
0.3 -3.65 0.0404508 0.3 -3.2 0.0404508 0.35 -3.2 0.0445503 
0.35 -3.65 0.0445503 0.35 -3.65 0.0445503 0.35 -3.2 0.0445503 
0.4 -3.2 0.0475528 0.4 -3.65 0.0475528 0.4 -3.65 0.0475528 
0.4 -3.2 0.0475528 0.45 -3.2 0.0493844 0.45 -3.65 0.0493844 
0.45 -3.65 0.0493844 0.45 -3.2 0.0493844 0.5 -3.2 0.05 
0.5 -3.65 0.05 0.5 -3.65 0.05 0.5 -3.2 0.05 
0.55 -3.2 0.0493844 0.55 -3.65 0.0493844 0.55 -3.65 0.0493844 
0.55 -3.2 0.0493844 0.6 -3.2 0.0475528 0.6 -3.65 0.0475528 
0.6 -3.65 0.0475528 0.6 -3.2 0.0475528 0.65 -3.2 0.0445503 
0.65 -3.65 0.0445503 0.65 -3.65 0.0445503 0.65 -3.2 0.0445503 
0.7 -3.2 0.0404508 0.7 -3.65 0.0404508 0.7 -3.65 0.0404508 
0.7 -3.2 0.0404508 0.75 -3.2 0.0353553 0.75 -3.65 0.0353553 
0.75 -3.65 0.0353553 0.75 -3.2 0.0353553 0.8 -3.2 0.0293893 
0.8 -3.65 0.0293893 0.8 -3.65 0.0293893 0.8 -3.2 0.0293893 
0.85 -3.2 0.0226995 0.85 -3.65 0.0226995 0.85 -3.65 0.0226995 
0.85 -3.2 0.0226995 0.9 -3.2 0.0154509 0.9 -3.65 0.0154509 
0.9 -3.65 0.0154509 0.9 -3.2 0.0154509 0.95 -3.2 0.00782172 
0.95 -3.65 0.00782172 0.95 -3.65 0.00782172 0.95 -3.2 0.00782172 
1 -3.2 6.12323e-18 1 -3.65 6.12323e-18 0 -3.2 0 
0 -2.75 0 0.05 -2.75 0.00782172 0.05 -3.2 0.00782172 
0.05 -3.2 0.00782172 0.05 -2.75 0.00782172 0.1 -2.75 0.0154509 
0.1 -3.2 0.0154509 0.1 -3.2 0.0154509 0.1 -2.75 0.0154509 
0.15 -2.75 0.0226995 0.15 -3.2 0.0226995 0.15 -3.2 0.0226995 
0.15 -2.75 0.0226995 0.2 -2.75 0.0293893 0.2 -3.2 0.0293893 
0.2 -3.2 0.0293893 0.2 -2.75 0.0293893 0.25 -2.75 0.0353553 
0.25 -3.2 0.0353553 0.25 -3.2 0.0353553 0.25 -2.75 0.0353553 
0.3 -2.75 0.0404508 0.3 -3.2 0.0404508 0.3 -3.2 0.0404508 
0.3 -2.75 0.0404508 0.35 -2.75 0.0445503 0.35 -3.2 0.0445503 
0.35 -3.2 0.0445503 0.35 -2.75 0.0445503 0.4 -2.75 0.0475528 
0.4 -3.2 0.0475528 0.4 -3.2 0.0475528 0.4 -2.75 0.0475528 
0.45 -2.75 0.0493844 0.45 -3.2 0.0493844 0.45 -3.2 0.0493844 
0.45 -2.75 0.0493844 0.5 -2.75 0.05 0.5 -3.2 0.05 
0.5 -3.2 0.05 0.5 -2.75 0.05 0.55 -2.75 0.0493844 
0.55 -3.2 0.0493844 0.55 -3.2 0.0493844 0.55 -2.75 0.0493844 
0.6 -2.75 0.0475528 0.6 -3.2 0.0475528 0.6 -3.2 0.0475528 
0.6 -2.75 0.0475528 0.65 -2.75 0.0445503 0.65 -3.2 0.0445503 
0.65 -3.2 0.0445503 0.65 -2.75 0.0445503 0.7 -2.75 0.0404508 
0.7 -3.2 0.0404508 0.7 -3.2 0.0404508 0.7 -2.75 0.0404508 
0.75 -2.75 0.0353553 0.75 -3.2 0.0353553 0.75 -3.2 0.0353553 
0.75 -2.75 0.0353553 0.8 -2.75 0.0293893 0.8 -3.2 0.0293893 
0.8 -3.2 0.0293893 0.8 -2.75 0.0293893 0.85 -2.75 0.0226995 
0.85 -3.2 0.0226995 0.85 -3.2 0.0226995 0.85 -2.75 0.0226995 
0.9 -2.75 0.0154509 0.9 -3.2 0.0154509 0.9 -3.2 0.0154509 
0.9 -2.75 0.0154509 0.95 -2.75 0.00782172 0.95 -3.2 0.00782172 
0.95 -3.2 0.00782172 0.95 -2.75 0.00782172 1 -2.75 6.12323e-18 
1 -3.2 6.12323e-18 0 -2.75 0 0 -2.3 0 
0.05 -2.3 0.00782172 0.05 -2.75 0.00782172 0.05 -2.75 0.00782172 
0.05 -2.3 0.00782172 0.1 -2.3 0.0154509 0.1 -2.75 0.0154509 
0.1 -2.75 0.0154509 0.1 -2.3 0.0154509 0.15 -2.3 0.0226995 
0.15 -2.75 0.0226995 0.15 -2.75 0.0226995 0.15 -2.3 0.0226995 
0.2 -2.3 0.0293893 0.2 -2.75 0.0293893 0.2 -2.75 0.0293893 
0.2 -2.3 0.0293893 0.25 -2.3 0.0353553 0.25 -2.75 0.0353553 
0.25 -2.75 0.0353553 0.25 -2.3 0.0353553 0.3 -2.3 0.0404508 
0.3 -2.75 0.0404508 0.3 -2.75 0.0404508 0.3 -2.3 0.0404508 
0.35 -2.3 0.0445503 0.35 -2.75 0.0445503 0.35 -2.75 0.0445503 
0.35 -2.3 0.0445503 0.4 -2.3 0.0475528 0.4 -2.75 0.0475528 
0.4 -2.75 0.0475528 0.4 -2.3 0.0475528 0.45 -2.3 0.0493844 
0.45 -2.75 0.0493844 0.45 -2.75 0.0493844 0.45 -2.3 0.0493844 
0.5 -2.3 0.05 0.5 -2.75 0.05 0.5 -2.75 0.05 
0.5 -2.3 0.05 0.55 -2.3 0.0493844 0.55 -2.75 0.0493844 
0.55 -2.75 0.0493844 0.55 -2.3 0.0493844 0.6 -2.3 0.0475528 
0.6 -2.75 0.0475528 0.6 -2.75 0.0475528 0.6 -2.3 0.0475528 
0.65 -2.3 0.0445503 0.65 -2.75 0.0445503 0.65 -2.75 0.0445503 
0.65 -2.3 0.0445503 0.7 -2.3 0.0404508 0.7 -2.75 0.0404508 
0.7 -2.75 0.0404508 0.7 -2.3 0.0404508 0.75 -2.3 0.0353553 
0.75 -2.75 0.0353553 0.75 -2.75 0.0353553 0.75 -2.3 0.0353553 
0.8 -2.3 0.0293893 0.8 -2.75 0.0293893 0.8 -2.75 0.0293893 
0.8 -2.3 0.0293893 0.85 -2.3 0.0226995 0.85 -2.75 0.0226995 
0.85 -2.75 0.0226995 0.85 -2.3 0.0226995 0.9 -2.3 0.0154509 
0.9 -2.75 0.0154509 0.9 -2.75 0.0154509 0.9 -2.3 0.0154509 
0.95 -2.3 0.00782172 0.95 -2.75 0.00782172 0.95 -2.75 0.00782172 
0.95 -2.3 0.00782172 1 -2.3 6.12323e-18 1 -2.75 6.12323e-18 
0 -2.3 0 0 -1.85 0 0.05 -1.85 0.00782172 
0.05 -2.3 0.00782172 0.05 -2.3 0.00782172 0.05 -1.85 0.00782172 
0.1 -1.85 0.0154509 0.1 -2.3 0.0154509 0.1 -2.3 0.0154509 
0.1 -1.85 0.0154509 0.15 -1.85 0.0226995 0.15 -2.3 0.0226995 
0.15 -2.3 0.0226995 0.15 -1.85 0.0226995 0.2 -1.85 0.0293893 
0.2 -2.3 0.0293893 0.2 -2.3 0.0293893 0.2 -1.85 0.0293893 
0.25 -1.85 0.0353553 0.25 -2.3 0.0353553 0.25 -2.3 0.0353553 
[...]
CELL_DATA 1580
SCALARS CP float
LOOKUP_TABLE default
64.3833 27.5603 16.9718 10.947 6.74196 3.53211 0.981065 1.07007 2.70237 
3.95998 4.87002 5.45346 5.73124 5.72735 5.46999 4.99126 4.32589 3.50874 
2.56887 1.50468 74.5425 32.857 21.0065 14.2671 9.53081 5.87568 2.93242 
0.530284 1.41585 2.95123 4.10323 4.89314 5.34269 5.47732 5.32739 4.92779 
4.31648 3.5318 2.60589 1.53836 79.1296 35.2148 22.81 15.7861 10.8612 
7.06236 3.99978 1.49312 0.547665 2.17043 3.40398 4.27039 4.79184 4.99419 
4.90818 4.56928 4.01634 3.28911 2.42242 1.42257 81.95 36.6519 23.9048 
16.709 11.6742 7.79519 4.66876 2.10793 0.0189858 1.64811 2.92352 3.83019 
4.39089 4.63189 4.58435 4.28418 3.77087 3.08525 2.26437 1.32044 84.0218 
37.7004 24.6993 17.3764 12.2611 8.3241 5.15217 2.5533 0.430952 1.26665 
2.57077 3.50507 4.09286 4.36078 4.34033 4.0678 3.58321 2.92828 2.14177 
1.24063 85.8031 38.5968 25.3752 17.9417 12.7562 8.76883 5.55753 2.92594 
0.775047 0.948446 2.27676 3.23424 3.84462 4.13492 4.13693 3.8873 3.4265 
2.79701 2.03909 1.17365 87.624 39.5074 26.0577 18.5089 13.2501 9.20988 
5.95727 3.29142 1.1108 0.639431 1.9925 2.9734 3.60638 3.91881 3.94282 
3.71542 3.27754 2.67241 1.94173 1.11021 89.8935 40.6276 26.8859 19.1878 
13.833 9.7231 6.41619 3.70575 1.48709 0.296569 1.67975 2.68839 3.34739 
3.68473 3.73305 3.52987 3.11678 2.53789 1.83654 1.0416 93.5212 42.3364 
28.0866 20.1209 14.5922 10.3586 6.95984 4.17993 1.90829 0.0838977 1.33107 
2.36531 3.04611 3.40348 3.47183 3.29026 2.90184 2.35231 1.68747 0.942213 
103.271 45.7397 29.6564 20.7658 14.7359 10.2561 6.7793 4.03498 1.87352 
0.203809 1.0364 1.89613 2.41967 2.6509 2.63501 2.41863 2.04931 1.575 
1.04465 0.509558 103.271 45.7397 29.6564 20.7658 14.7359 10.2561 6.7793 
4.03498 1.87352 0.203809 1.0364 1.89613 2.41967 2.6509 2.63501 2.41863 
2.04931 1.575 1.04465 0.509558 93.5212 42.3364 28.0866 20.1209 14.5922 
10.3586 6.95984 4.17993 1.90829 0.0838977 1.33107 2.36531 3.04611 3.40348 
3.47183 3.29026 2.90184 2.35231 1.68747 0.942213 89.8935 40.6276 26.8859 
19.1878 13.833 9.7231 6.41619 3.70575 1.48709 0.296569 1.67975 2.68839 
3.34739 3.68473 3.73305 3.52987 3.11678 2.53789 1.83654 1.0416 87.624 
39.5074 26.0577 18.5089 13.2501 9.20988 5.95727 3.29142 1.1108 0.639431 
1.9925 2.9734 3.60638 3.91881 3.94282 3.71542 3.27754 2.67241 1.94173 
1.11021 85.8031 38.5968 25.3752 17.9417 12.7562 8.76883 5.55753 2.92594 
0.775047 0.948446 2.27676 3.23424 3.84462 4.13492 4.13693 3.8873 3.4265 
2.79701 2.03909 1.17365 84.0218 37.7004 24.6993 17.3764 12.2611 8.3241 
5.15217 2.5533 0.430952 1.26665 2.57077 3.50507 4.09286 4.36078 4.34033 
4.0678 3.58321 2.92828 2.14177 1.24063 81.95 36.6519 23.9048 16.709 
11.6742 7.79519 4.66876 2.10793 0.0189858 1.64811 2.92352 3.83019 4.39089 
4.63189 4.58435 4.28418 3.77087 3.08525 2.26437 1.32044 79.1296 35.2148 
22.81 15.7861 10.8612 7.06236 3.99978 1.49312 0.547665 2.17043 3.40398 
4.27039 4.79184 4.99419 4.90818 4.56928 4.01634 3.28911 2.42242 1.42257 
74.5425 32.857 21.0065 14.2671 9.53081 5.87568 2.93242 0.530284 1.41585 
2.95123 4.10323 4.89314 5.34269 5.47732 5.32739 4.92779 4.31648 3.5318 
2.60589 1.53836 64.3833 27.5603 16.9718 10.947 6.74196 3.53211 0.981065 
1.07007 2.70237 3.95998 4.87002 5.45346 5.73124 5.72735 5.46999 4.99126 
4.32589 3.50874 2.56887 1.50468 22.348 8.49422 4.40761 1.97275 0.00398514 
2.10153 5.13367 13.816 6.09341 4.38998 25.909 10.3644 5.64365 2.68705 
0.228967 2.30872 5.71599 14.6972 7.16831 5.88919 27.1454 10.9973 6.0827 
2.98247 0.395068 2.26298 5.7822 14.8791 7.47761 6.48457 27.716 11.2889 
6.29104 3.13376 0.496234 2.21002 5.77819 14.9327 7.60393 6.77833 28.0705 
11.4732 6.42699 3.2379 0.572512 2.16151 5.75979 14.9527 7.6759 6.97195 
28.4054 11.6523 6.56395 3.34791 0.658521 2.10061 5.72797 14.9604 7.73932 
7.16721 28.8644 11.9067 6.76723 3.51991 0.80173 1.99015 5.65915 14.9524 
7.81992 7.45829 29.5965 12.3386 7.1395 3.86389 1.11849 1.71433 5.45159 
14.8645 7.91983 8.00583 30.6928 13.0615 7.85652 4.6466 1.99262 0.760913 
4.50058 14.168 7.77277 9.21662 31.7827 13.896 8.85884 6.02966 4.06132 
2.56206 1.40041 0.557264 0.0519816 0.124771 31.7827 13.896 8.85884 6.02966 
4.06132 2.56206 1.40041 0.557264 0.0519816 0.124771 30.6928 13.0615 7.85652 
4.6466 1.99262 0.760913 4.50058 14.168 7.77277 9.21662 29.5965 12.3386 
7.1395 3.86389 1.11849 1.71433 5.45159 14.8645 7.91983 8.00583 28.8644 
11.9067 6.76723 3.51991 0.80173 1.99015 5.65915 14.9524 7.81992 7.45829 
28.4054 11.6523 6.56395 3.34791 0.658521 2.10061 5.72797 14.9604 7.73932 
7.16721 28.0705 11.4732 6.42699 3.2379 0.572512 2.16151 5.75979 14.9527 
7.6759 6.97195 27.716 11.2889 6.29104 3.13376 0.496234 2.21002 5.77819 
14.9327 7.60393 6.77833 27.1454 10.9973 6.0827 2.98247 0.395068 2.26298 
5.7822 14.8791 7.47761 6.48457 25.909 10.3644 5.64365 2.68705 0.228967 
2.30872 5.71599 14.6972 7.16831 5.88919 22.348 8.49422 4.40761 1.97275 
0.00398514 2.10153 5.13367 13.816 6.09341 4.38998 1.8057e-15 3.53913e-16 9.19534e-16 
1.1755e-15 2.25393e-16 1.60337e-16 3.8702e-16 8.70547e-16 1.85649e-15 4.17733e-15 2.73419e-16 2.9231e-16 
3.69582e-16 1.74418e-16 3.97588e-16 4.13458e-17 5.13155e-16 7.66626e-16 5.01481e-16 4.30104e-16 6.72442e-16 
4.30067e-16 5.05465e-17 3.66095e-16 1.59771e-17 1.07094e-16 6.97277e-16 1.17611e-16 5.41995e-17 1.27841e-16 
5.84257e-16 2.17772e-16 3.93142e-16 4.7205e-16 1.00935e-15 3.53811e-16 2.06953e-16 2.81699e-17 3.0188e-16 
2.12284e-17 9.67624e-16 2.5092e-16 5.12794e-16 1.04066e-16 1.30609e-15 9.04268e-17 3.82245e-16 2.34652e-16 
1.32688e-15 1.04634e-15 1.57555e-15 7.51933e-16 2.54608e-16 1.21891e-16 1.15156e-15 6.38339e-16 9.08713e-16 
3.33339e-16 2.58374e-17 6.84278e-16 2.98946e-15 1.48637e-15 2.17845e-16 4.83465e-16 5.21218e-16 1.00449e-15 
2.00326e-16 4.09771e-16 4.37213e-16 1.24791e-15 4.77886e-15 1.09589e-15 1.00518e-15 1.50842e-15 1.43997e-15 
2.75469e-17 7.5289e-17 1.17052e-16 5.30362e-16 1.4822e-15 6.11855e-15 3.19119e-15 1.86474e-15 3.28062e-15 
4.57374e-16 4.46056e-17 3.39771e-15 1.73803e-15 4.56537e-16 1.20075e-15 1.84681e-14 5.42974e-15 8.20813e-16 
1.56073e-15 3.87223e-16 3.52808e-15 8.45063e-16 3.79198e-15 2.99305e-15 3.94094e-15 2.50173e-16 8.24662e-16 
1.97077e-16 1.15293e-15 8.19658e-16 2.3501e-16 1.63776e-15 2.83867e-15 4.57425e-15 9.31891e-16 3.31254e-15 
8.21206e-16 1.80335e-15 1.61313e-15 1.50966e-15 8.52513e-16 3.30686e-15 3.15569e-16 6.88187e-16 1.20511e-15 
1.95822e-15 7.62882e-16 4.15999e-15 1.91161e-15 5.47369e-15 4.5398e-15 2.28354e-17 1.89912e-15 2.54194e-16 
4.34421e-15 2.27234e-16 1.2666e-15 9.17359e-15 7.09127e-15 4.57882e-15 8.47108e-16 2.80595e-15 3.86027e-15 
5.51882e-16 5.13957e-15 2.44284e-15 1.467e-15 4.63604e-15 3.52735e-15 7.26849e-17 1.98138e-15 2.43009e-16 
1.37268e-15 8.0299e-15 2.68687e-16 1.93858e-15 2.17616e-15 7.83292e-15 5.97799e-15 2.06659e-14 1.71527e-15 
8.039e-15 1.25899e-14 1.6416e-15 4.74689e-15 2.20919e-14 5.92227e-17 6.01385e-15 8.06522e-15 7.82913e-16 
4.35118e-15 1.49635e-14 1.56852e-15 3.27903e-15 9.29386e-15 2.99628e-15 7.47736e-15 1.16025e-14 6.99702e-15 
7.24855e-16 3.65285e-15 3.23818e-15 6.43841e-15 6.32764e-15 4.13047e-15 1.03319e-14 1.09863e-14 5.87397e-15 
4.34157e-15 1.91622e-14 9.07029e-15 4.13829e-15 1.30614e-14 2.40407e-15 1.78772e-14 2.34134e-14 1.05247e-14 
6.10454e-15 1.53959e-14 4.51035e-17 3.58061e-15 5.43725e-16 7.06631e-15 1.42129e-14 1.76042e-14 2.17079e-14 
2.60914e-14 1.76135e-14 1.40278e-14 2.90933e-14 1.93258e-14 6.13768e-15 7.68891e-15 2.71888e-14 5.49353e-14 
4.57184e-15 4.22677e-15 1.86822e-15 1.28158e-14 3.66524e-15 1.58218e-14 1.61431e-14 9.32093e-15 1.81275e-14 
6.61167e-15 6.78854e-15 1.54172e-14 1.17186e-14 1.89544e-14 1.03644e-15 3.09442e-14 1.4188e-14 2.5893e-15 
3.53627e-15 1.7269e-14 2.42975e-15 5.36003e-15 1.27568e-14 1.45447e-14 6.38816e-15 6.79108e-16 7.49769e-15 
1.73048e-14 7.16e-15 2.21714e-14 2.46158e-14 4.51344e-15 1.40026e-14 1.0287e-14 7.38183e-15 7.65324e-15 
1.2499e-14 2.58465e-14 1.56442e-15 6.32697e-15 4.94395e-15 1.84438e-15 3.11628e-15 3.45703e-16 1.85715e-14 
2.72667e-14 2.53254e-15 3.69442e-15 1.19067e-14 1.93156e-14 3.02673e-14 1.14149e-14 3.26e-15 2.2614e-14 
9.37452e-15 1.0686e-14 5.11246e-15 2.35773e-15 5.69994e-15 8.63765e-15 2.47804e-14 1.17582e-14 2.05574e-14 
5.83275e-15 1.34473e-14 3.42008e-15 2.61018e-14 5.73967e-16 1.11177e-14 3.08959e-15 1.38957e-14 1.43007e-14 
7.21942e-15 1.25649e-14 2.43552e-14 8.55694e-15 1.75797e-14 3.08518e-14 1.90806e-16 5.7947e-15 1.19398e-14 
3.32255e-16 1.14572e-14 5.45343e-14 3.41832e-15 1.55978e-14 2.45e-14 9.37725e-14 6.03924e-15 1.50331e-14 
3.34968e-15 1.4252e-14 8.47412e-14 9.59586e-15 1.72271e-14 3.53597e-14 1.73076e-14 5.29182e-14 2.60447e-14 
2.77311e-15 2.10016e-14 2.22169e-14 4.56452e-15 2.23129e-14 2.03342e-14 1.72295e-14 7.20014e-15 4.92573e-16 
1.42145e-14 5.61154e-15 3.51432e-16 3.21438e-16 1.5717e-15 1.5076e-15 1.02526e-15 1.77676e-16 1.25673e-15 
2.33666e-15 3.9658e-16 9.94242e-16 2.63544e-15 3.07115e-16 7.53066e-16 3.20772e-15 2.84141e-15 6.62647e-16 
8.25512e-16 2.58104e-16 3.25178e-15 4.07027e-15 8.77727e-17 1.36355e-15 3.00713e-16 3.22372e-15 1.03837e-15 
2.91025e-15 4.98605e-16 1.41218e-15 1.73486e-15 1.2137e-16 2.4407e-15 3.04406e-16 4.17549e-15 1.10544e-15 
5.11224e-15 3.54809e-15 3.7856e-15 5.84134e-17 6.6174e-15 9.86554e-17 1.52283e-15 1.75641e-15 2.20475e-15 
2.23648e-15 3.57846e-15 1.10183e-15 1.38599e-15 9.72887e-16 6.94218e-15 1.47365e-16 5.52857e-15 1.55001e-15 
9.79869e-16 8.89703e-16 2.46461e-15 6.74987e-15 1.96554e-15 1.09414e-14 6.5522e-15 6.30204e-15 2.05611e-15 
2.28202e-15 9.65296e-15 1.83177e-15 5.34733e-15 4.95584e-15 5.7483e-15 8.38891e-16 1.47277e-14 1.24481e-14 
1.43323e-14 6.57459e-15 8.44944e-15 4.87566e-15 2.29982e-15 2.73445e-15 5.53602e-17 1.77602e-15 9.17079e-16 
2.982e-15 4.58882e-16 2.85469e-15 5.67934e-16 1.51533e-14 6.69065e-15 1.193e-14 1.1293e-14 1.29105e-14 
5.26947e-15 3.91894e-15 7.1902e-15 1.55945e-15 1.74033e-14 5.25036e-15 2.80731e-16 1.57441e-14 9.85622e-15 
1.71333e-15 5.13873e-15 6.42729e-15 3.41928e-16 8.53466e-15 5.10225e-15 6.80045e-15 5.37036e-15 1.26477e-14 
4.06354e-15 9.38144e-15 3.72798e-16 3.48481e-15 2.22051e-15 5.2542e-15 4.07083e-15 1.00085e-15 6.28378e-15 
1.03936e-14 7.61982e-17 1.86104e-14 4.24473e-15 1.07926e-14 3.81392e-16 1.16389e-15 3.46713e-15 1.925e-14 
2.73824e-15 1.73498e-15 4.65244e-15 1.25077e-14 1.06888e-14 1.12432e-15 4.36621e-15 1.36623e-14 6.56451e-15 
9.0872e-15 1.23251e-14 1.25006e-14 1.13276e-14 1.12155e-14 3.34343e-15 4.17766e-15 8.18484e-16 1.95675e-14 
1.08963e-14 9.37549e-15 4.24906e-15 2.01743e-15 2.24917e-15 2.31883e-15 1.63176e-14 1.06361e-14 4.17431e-15 
3.34715e-15 1.21195e-14 1.25516e-14 1.01987e-14 1.02312e-14 5.34027e-15 1.73264e-14 1.60766e-14 3.78608e-14 
3.75537e-14 1.47675e-16 4.96013e-15 1.37132e-14 6.26776e-15 2.71587e-14 3.84473e-14 1.67727e-14 1.69687e-14 
3.86972e-15 1.84013e-15 2.54535e-14 3.29612e-14 1.52801e-14 2.12e-14 2.01188e-15 1.06898e-14 1.43934e-14 
9.18066e-15 3.77662e-17 1.11856e-14 4.17942e-15 1.95599e-15 1.23666e-14 1.25699e-14 2.51925e-14 8.03989e-15 
2.20705e-14 3.66447e-14 7.11492e-15 6.85195e-15 1.41424e-14 1.3555e-14 2.74285e-14 8.69603e-15 2.01091e-14 
1.63612e-14 3.1825e-14 4.11373e-15 3.82237e-14 5.20806e-14 2.3671e-15 1.85656e-14 8.22441e-15 1.0119e-15 
8.40126e-15 1.45505e-14 2.31418e-14 2.98873e-14 2.17988e-14 2.39555e-14 1.39359e-14 2.25926e-14 4.72293e-14 
3.09444e-15 3.0521e-14 2.88682e-14 1.31316e-14 1.19637e-14 5.737e-15 18.9648 6.82241 4.06489 
2.96857 2.44557 2.16984 2.01476 1.92362 1.86858 1.83496 1.81464 1.8029 
1.79692 1.79494 1.79586 1.79897 1.80381 1.81007 1.81756 1.82615 1.83576 
1.84636 1.85794 1.87051 1.88408 1.89871 1.91445 1.93134 1.94947 1.96892 
1.98977 2.01212 2.03609 2.0618 2.08936 2.11894 2.15068 2.18474 2.22132 
2.2606 2.30282 2.34818 2.39696 2.44942 2.50586 2.5666 2.63199 2.70241 
2.77827 2.86 2.94809 3.04305 3.14543 3.25582 3.37485 3.50318 3.64151 
3.79053 3.95094 4.12338 4.30838 4.50622 4.71681 4.93936 5.17196 5.4109 
5.64977 5.87835 6.08209 6.24403 6.43971 6.44946 6.32113 6.09906 5.8132 
5.49037 5.15277 4.817 4.49415 4.19052 3.90854 3.64787 3.40633 3.18087 
2.96825 2.76574 2.57151 2.38497 2.20679 2.03857 1.8822 1.73905 1.6094 
1.49255 1.38722 1.29201 1.20563 1.12696 1.05506 0.989148 0.92857 0.872763 
0.821247 0.773605 0.729476 0.688538 0.650509 0.615135 0.582193 0.551479 0.522811 
0.496025 0.470973 0.447519 0.425541 0.404927 0.385575 0.367393 0.350294 0.334202 
0.319045 0.304756 0.291276 0.278549 0.266523 0.255153 0.244393 0.234203 0.224547 
0.21539 0.206699 0.198445 0.190601 0.18314 0.176039 0.169275 0.162828 0.156678 
0.150808 0.1452 0.139838 0.134709 0.129797 0.12509 0.120576 0.116243 0.11208 
0.108077 0.104225 0.100515 0.0969371 0.0934845 0.0901492 0.086924 0.0838021 0.0807771 
0.0778427 0.0749934 0.0722235 0.0695279 0.0669018 0.0643404 0.0618395 0.0593949 0.0570029 
0.0546596 0.052362 0.0501067 0.0478909 0.045712 0.0435676 0.0414555 0.0393739 0.0373212 
0.035296 0.0332972 0.031324 0.0293758 0.0274526 0.0255542 0.0236811 0.021834 0.0200138 
0.0182218 0.0164595 0.014729 0.0130323 0.0113719 0.00975049 0.00817103 0.00663667 0.00515077 
0.00371686 0.00233855 0.00101957 0.000236335 0.00142541 0.00254395 0.00358838 0.00455524 0.00544128 
0.00624349 0.00695911 0.0075857 0.00812113 0.00856357 0.00891151 0.0091637 0.00931909 0.00937668 
0.00933543 0.00919392 0.00895001 0.00860023 0.00813874 0.00755557 0.00683312 0.00593827 0.00480034 
0.00322299 19.0882 6.86682 4.09135 2.9879 2.46149 2.18397 2.02787 1.93614 
1.88074 1.84691 1.82645 1.81464 1.80861 1.80662 1.80755 1.81068 1.81555 
1.82185 1.82939 1.83803 1.84771 1.85838 1.87004 1.88268 1.89635 1.91107 
1.92691 1.94391 1.96216 1.98173 2.00272 2.02522 2.04935 2.07522 2.10296 
2.13273 2.16467 2.19896 2.23578 2.27532 2.31781 2.36347 2.41256 2.46536 
2.52217 2.58331 2.64913 2.72001 2.79636 2.87862 2.96728 3.06286 3.1659 
3.27701 3.39682 3.52599 3.66522 3.81521 3.97666 4.15023 4.33642 4.53555 
4.74751 4.97151 5.20563 5.44612 5.68654 5.91661 6.12168 6.28468 6.43971 
6.44946 6.32113 6.09906 5.8132 5.49037 5.15277 4.817 4.49415 4.19052 
3.90854 3.64787 3.40633 3.18087 2.96825 2.76574 2.57151 2.38497 2.20679 
2.03857 1.8822 1.73905 1.6094 1.49255 1.38722 1.29201 1.20563 1.12696 
1.05506 0.989148 0.92857 0.872763 0.821247 0.773605 0.729476 0.688538 0.650509 
0.615135 0.582193 0.551479 0.522811 0.496025 0.470973 0.447519 0.425541 0.404927 
0.385575 0.367393 0.350294 0.334202 0.319045 0.304756 0.291276 0.278549 0.266523 
0.255153 0.244393 0.234203 0.224547 0.21539 0.206699 0.198445 0.190601 0.18314 
0.176039 0.169275 0.162828 0.156678 0.150808 0.1452 0.139838 0.134709 0.129797 
0.12509 0.120576 0.116243 0.11208 0.108077 0.104225 0.100515 0.0969371 0.0934845 
0.0901492 0.086924 0.0838021 0.0807771 0.0778427 0.0749934 0.0722235 0.0695279 0.0669018 
0.0643404 0.0618395 0.0593949 0.0570029 0.0546596 0.052362 0.0501067 0.0478909 0.045712 
0.0435676 0.0414555 0.0393739 0.0373212 0.035296 0.0332972 0.031324 0.0293758 0.0274526 
0.0255542 0.0236811 0.021834 0.0200138 0.0182218 0.0164595 0.014729 0.0130323 0.0113719 
0.00975049 0.00817103 0.00663667 0.00515077 0.00371686 0.00233855 0.00101957 0.000236335 0.00142541 
0.00254395 0.00358838 0.00455524 0.00544128 0.00624349 0.00695911 0.0075857 0.00812113 0.00856357 
0.00891151 0.0091637 0.00931909 0.00937668 0.00933543 0.00919392 0.00895001 0.00860023 0.00813874 
0.00755557 0.00683312 0.00593827 0.00480034 0.00322299 
METADATA
INFORMATION 0

FIELD FieldData 5
gid 1 1580 float
0 1 2 3 4 5 6 7 8 
9 10 11 12 13 14 15 16 17 
18 19 20 21 22 23 24 25 26 
27 28 29 30 31 32 33 34 35 
36 37 38 39 40 41 42 43 44 
45 46 47 48 49 50 51 52 53 
54 55 56 57 58 59 60 61 62 
63 64 65 66 67 68 69 70 71 
72 73 74 75 76 77 78 79 80 
81 82 83 84 85 86 87 88 89 
90 91 92 93 94 95 96 97 98 
99 100 101 102 103 104 105 106 107 
108 109 110 111 112 113 114 115 116 
117 118 119 120 121 122 123 124 125 
126 127 128 129 130 131 132 133 134 
135 136 137 138 139 140 141 142 143 
144 145 146 147 148 149 150 151 152 
153 154 155 156 157 158 159 160 161 
162 163 164 165 166 167 168 169 170 
171 172 173 174 175 176 177 178 179 
180 181 182 183 184 185 186 187 188 
189 190 191 192 193 194 195 196 197 
198 199 200 201 202 203 204 205 206 
207 208 209 210 211 212 213 214 215 
216 217 218 219 220 221 222 223 224 
225 226 227 228 229 230 231 232 233 
234 235 236 237 238 239 240 241 242 
243 244 245 246 247 248 249 250 251 
252 253 254 255 256 257 258 259 260 
261 262 263 264 265 266 267 268 269 
270 271 272 273 274 275 276 277 278 
279 280 281 282 283 284 285 286 287 
288 289 290 291 292 293 294 295 296 
297 298 299 300 301 302 303 304 305 
306 307 308 309 310 311 312 313 314 
315 316 317 318 319 320 321 322 323 
324 325 326 327 328 329 330 331 332 
333 334 335 336 337 338 339 340 341 
342 343 344 345 346 347 348 349 350 
351 352 353 354 355 356 357 358 359 
360 361 362 363 364 365 366 367 368 
369 370 371 372 373 374 375 376 377 
378 379 380 381 382 383 384 385 386 
387 388 389 390 391 392 393 394 395 
396 397 398 399 400 401 402 403 404 
405 406 407 408 409 410 411 412 413 
414 415 416 417 418 419 420 421 422 
423 424 425 426 427 428 429 430 431 
432 433 434 435 436 437 438 439 440 
441 442 443 444 445 446 447 448 449 
450 451 452 453 454 455 456 457 458 
459 460 461 462 463 464 465 466 467 
468 469 470 471 472 473 474 475 476 
477 478 479 480 481 482 483 484 485 
486 487 488 489 490 491 492 493 494 
495 496 497 498 499 500 501 502 503 
504 505 506 507 508 509 510 511 512 
513 514 515 516 517 518 519 520 521 
522 523 524 525 526 527 528 529 530 
531 532 533 534 535 536 537 538 539 
540 541 542 543 544 545 546 547 548 
549 550 551 552 553 554 555 556 557 
558 559 560 561 562 563 564 565 566 
567 568 569 570 571 572 573 574 575 
576 577 578 579 580 581 582 583 584 
585 586 587 588 589 590 591 592 593 
594 595 596 597 598 599 600 601 602 
603 604 605 606 607 608 609 610 611 
612 613 614 615 616 617 618 619 620 
621 622 623 624 625 626 627 628 629 
630 631 632 633 634 635 636 637 638 
639 640 641 642 643 644 645 646 647 
648 649 650 651 652 653 654 655 656 
657 658 659 660 661 662 663 664 665 
666 667 668 669 670 671 672 673 674 
675 676 677 678 679 680 681 682 683 
684 685 686 687 688 689 690 691 692 
693 694 695 696 697 698 699 700 701 
702 703 704 705 706 707 708 709 710 
711 712 713 714 715 716 717 718 719 
720 721 722 723 724 725 726 727 728 
729 730 731 732 733 734 735 736 737 
738 739 740 741 742 743 744 745 746 
747 748 749 750 751 752 753 754 755 
756 757 758 759 760 761 762 763 764 
765 766 767 768 769 770 771 772 773 
774 775 776 777 778 779 780 781 782 
783 784 785 786 787 788 789 790 791 
792 793 794 795 796 797 798 799 800 
801 802 803 804 805 806 807 808 809 
810 811 812 813 814 815 816 817 818 
819 820 821 822 823 824 825 826 827 
828 829 830 831 832 833 834 835 836 
837 838 839 840 841 842 843 844 845 
846 847 848 849 850 851 852 853 854 
855 856 857 858 859 860 861 862 863 
864 865 866 867 868 869 870 871 872 
873 874 875 876 877 878 879 880 881 
882 883 884 885 886 887 888 889 890 
891 892 893 894 895 896 897 898 899 
900 901 902 903 904 905 906 907 908 
909 910 911 912 913 914 915 916 917 
918 919 920 921 922 923 924 925 926 
927 928 929 930 931 932 933 934 935 
936 937 938 939 940 941 942 943 944 
945 946 947 948 949 950 951 952 953 
954 955 956 957 958 959 960 961 962 
963 964 965 966 967 968 969 970 971 
972 973 974 975 976 977 978 979 980 
981 982 983 984 985 986 987 988 989 
990 991 992 993 994 995 996 997 998 
999 1000 1001 1002 1003 1004 1005 1006 1007 
1008 1009 1010 1011 1012 1013 1014 1015 1016 
1017 1018 1019 1020 1021 1022 1023 1024 1025 
1026 1027 1028 1029 1030 1031 1032 1033 1034 
1035 1036 1037 1038 1039 1040 1041 1042 1043 
1044 1045 1046 1047 1048 1049 1050 1051 1052 
1053 1054 1055 1056 1057 1058 1059 1060 1061 
1062 1063 1064 1065 1066 1067 1068 1069 1070 
1071 1072 1073 1074 1075 1076 1077 1078 1079 
1080 1081 1082 1083 1084 1085 1086 1087 1088 
1089 1090 1091 1092 1093 1094 1095 1096 1097 
1098 1099 1100 1101 1102 1103 1104 1105 1106 
1107 1108 1109 1110 1111 1112 1113 1114 1115 