# vtk DataFile Version 5.1
vtk output
ASCII
DATASET POLYDATA
POINTS 6320 float
0 -5 0 0 -4.55 0 0.05 -4.55 0.00782172 
0.05 -5 0.00782172 0.05 -5 0.00782172 0.05 -4.55 0.00782172 
0.1 -4.55 0.0154509 0.1 -5 0.0154509 0.1 -5 0.0154509 
0.1 -4.55 0.0154509 0.15 -4.55 0.0226995 0.15 -5 0.0226995 
0.15 -5 0.0226995 0.15 -4.55 0.0226995 0.2 -4.55 0.0293893 
0.2 -5 0.0293893 0.2 -5 0.0293893 0.2 -4.55 0.0293893 
0.25 -4.55 0.0353553 0.25 -5 0.0353553 0.25 -5 0.0353553 
0.25 -4.55 0.0353553 0.3 -4.55 0.0404508 0.3 -5 0.0404508 
0.3 -5 0.0404508 0.3 -4.55 0.0404508 0.35 -4.55 0.0445503 
0.35 -5 0.0445503 0.35 -5 0.0445503 0.35 -4.55 0.0445503 
0.4 -4.55 0.0475528 0.4 -5 0.0475528 0.4 -5 0.0475528 
0.4 -4.55 0.0475528 0.45 -4.55 0.0493844 0.45 -5 0.0493844 
0.45 -5 0.0493844 0.45 -4.55 0.0493844 0.5 -4.55 0.05 
0.5 -5 0.05 0.5 -5 0.05 0.5 -4.55 0.05 
0.55 -4.55 0.0493844 0.55 -5 0.0493844 0.55 -5 0.0493844 
0.55 -4.55 0.0493844 0.6 -4.55 0.0475528 0.6 -5 0.0475528 
0.6 -5 0.0475528 0.6 -4.55 0.0475528 0.65 -4.55 0.0445503 
0.65 -5 0.0445503 0.65 -5 0.0445503 0.65 -4.55 0.0445503 
0.7 -4.55 0.0404508 0.7 -5 0.0404508 0.7 -5 0.0404508 
0.7 -4.55 0.0404508 0.75 -4.55 0.0353553 0.75 -5 0.0353553 
0.75 -5 0.0353553 0.75 -4.55 0.0353553 0.8 -4.55 0.0293893 
0.8 -5 0.0293893 0.8 -5 0.0293893 0.8 -4.55 0.0293893 
0.85 -4.55 0.0226995 0.85 -5 0.0226995 0.85 -5 0.0226995 
0.85 -4.55 0.0226995 0.9 -4.55 0.0154509 0.9 -5 0.0154509 
0.9 -5 0.0154509 0.9 -4.55 0.0154509 0.95 -4.55 0.00782172 
0.95 -5 0.00782172 0.95 -5 0.00782172 0.95 -4.55 0.00782172 
1 -4.55 6.12323e-18 1 -5 6.12323e-18 0 -4.55 0 
0 -4.1 0 0.05 -4.1 0.00782172 0.05 -4.55 0.00782172 
0.05 -4.55 0.00782172 0.05 -4.1 0.00782172 0.1 -4.1 0.0154509 
0.1 -4.55 0.0154509 0.1 -4.55 0.0154509 0.1 -4.1 0.0154509 
0.15 -4.1 0.0226995 0.15 -4.55 0.0226995 0.15 -4.55 0.0226995 
0.15 -4.1 0.0226995 0.2 -4.1 0.0293893 0.2 -4.55 0.0293893 
0.2 -4.55 0.0293893 0.2 -4.1 0.0293893 0.25 -4.1 0.0353553 
0.25 -4.55 0.0353553 0.25 -4.55 0.0353553 0.25 -4.1 0.0353553 
0.3 -4.1 0.0404508 0.3 -4.55 0.0404508 0.3 -4.55 0.0404508 
0.3 -4.1 0.0404508 0.35 -4.1 0.0445503 0.35 -4.55 0.0445503 
0.35 -4.55 0.0445503 0.35 -4.1 0.0445503 0.4 -4.1 0.0475528 
0.4 -4.55 0.0475528 0.4 -4.55 0.0475528 0.4 -4.1 0.0475528 
0.45 -4.1 0.0493844 0.45 -4.55 0.0493844 0.45 -4.55 0.0493844 
0.45 -4.1 0.0493844 0.5 -4.1 0.05 0.5 -4.55 0.05 
0.5 -4.55 0.05 0.5 -4.1 0.05 0.55 -4.1 0.0493844 
0.55 -4.55 0.0493844 0.55 -4.55 0.0493844 0.55 -4.1 0.0493844 
0.6 -4.1 0.0475528 0.6 -4.55 0.0475528 0.6 -4.55 0.0475528 
0.6 -4.1 0.0475528 0.65 -4.1 0.0445503 0.65 -4.55 0.0445503 
0.65 -4.55 0.0445503 0.65 -4.1 0.0445503 0.7 -4.1 0.0404508 
0.7 -4.55 0.0404508 0.7 -4.55 0.0404508 0.7 -4.1 0.0404508 
0.75 -4.1 0.0353553 0.75 -4.55 0.0353553 0.75 -4.55 0.0353553 
0.75 -4.1 0.0353553 0.8 -4.1 0.0293893 0.8 -4.55 0.0293893 
0.8 -4.55 0.0293893 0.8 -4.1 0.0293893 0.85 -4.1 0.0226995 
0.85 -4.55 0.0226995 0.85 -4.55 0.0226995 0.85 -4.1 0.0226995 
0.9 -4.1 0.0154509 0.9 -4.55 0.0154509 0.9 -4.55 0.0154509 
0.9 -4.1 0.0154509 0.95 -4.1 0.00782172 0.95 -4.55 0.00782172 
0.95 -4.55 0.00782172 0.95 -4.1 0.00782172 1 -4.1 6.12323e-18 
1 -4.55 6.12323e-18 0 -4.1 0 0 -3.65 0 
0.05 -3.65 0.00782172 0.05 -4.1 0.00782172 0.05 -4.1 0.00782172 
0.05 -3.65 0.00782172 0.1 -3.65 0.0154509 0.1 -4.1 0.0154509 
0.1 -4.1 0.0154509 0.1 -3.65 0.0154509 0.15 -3.65 0.0226995 
0.15 -4.1 0.0226995 0.15 -4.1 0.0226995 0.15 -3.65 0.0226995 
0.2 -3.65 0.0293893 0.2 -4.1 0.0293893 0.2 -4.1 0.0293893 
0.2 -3.65 0.0293893 0.25 -3.65 0.0353553 0.25 -4.1 0.0353553 
0.25 -4.1 0.0353553 0.25 -3.65 0.0353553 0.3 -3.65 0.0404508 
0.3 -4.1 0.0404508 0.3 -4.1 0.0404508 0.3 -3.65 0.0404508 
0.35 -3.65 0.0445503 0.35 -4.1 0.0445503 0.35 -4.1 0.0445503 
0.35 -3.65 0.0445503 0.4 -3.65 0.0475528 0.4 -4.1 0.0475528 
0.4 -4.1 0.0475528 0.4 -3.65 0.0475528 0.45 -3.65 0.0493844 
0.45 -4.1 0.0493844 0.45 -4.1 0.0493844 0.45 -3.65 0.0493844 
0.5 -3.65 0.05 0.5 -4.1 0.05 0.5 -4.1 0.05 
0.5 -3.65 0.05 0.55 -3.65 0.0493844 0.55 -4.1 0.0493844 
0.55 -4.1 0.0493844 0.55 -3.65 0.0493844 0.6 -3.65 0.0475528 
0.6 -4.1 0.0475528 0.6 -4.1 0.0475528 0.6 -3.65 0.0475528 
0.65 -3.65 0.0445503 0.65 -4.1 0.0445503 0.65 -4.1 0.0445503 
0.65 -3.65 0.0445503 0.7 -3.65 0.0404508 0.7 -4.1 0.0404508 
0.7 -4.1 0.0404508 0.7 -3.65 0.0404508 0.75 -3.65 0.0353553 
0.75 -4.1 0.0353553 0.75 -4.1 0.0353553 0.75 -3.65 0.0353553 
0.8 -3.65 0.0293893 0.8 -4.1 0.0293893 0.8 -4.1 0.0293893 
0.8 -3.65 0.0293893 0.85 -3.65 0.0226995 0.85 -4.1 0.0226995 
0.85 -4.1 0.0226995 0.85 -3.65 0.0226995 0.9 -3.65 0.0154509 
0.9 -4.1 0.0154509 0.9 -4.1 0.0154509 0.9 -3.65 0.0154509 
0.95 -3.65 0.00782172 0.95 -4.1 0.00782172 0.95 -4.1 0.00782172 
0.95 -3.65 0.00782172 1 -3.65 6.12323e-18 1 -4.1 6.12323e-18 
0 -3.65 0 0 -3.2 0 0.05 -3.2 0.00782172 
0.05 -3.65 0.00782172 0.05 -3.65 0.00782172 0.05 -3.2 0.00782172 
0.1 -3.2 0.0154509 0.1 -3.65 0.0154509 0.1 -3.65 0.0154509 
0.1 -3.2 0.0154509 0.15 -3.2 0.0226995 0.15 -3.65 0.0226995 
0.15 -3.65 0.0226995 0.15 -3.2 0.0226995 0.2 -3.2 0.0293893 
0.2 -3.65 0.0293893 0.2 -3.65 0.0293893 0.2 -3.2 0.0293893 
0.25 -3.2 0.0353553 0.25 -3.65 0.0353553 0.25 -3.65 0.0353553 
0.25 -3.2 0.0353553 0.3 -3.2 0.0404508 0.3 -3.65 0.0404508 
0.3 -3.65 0.0404508 0.3 -3.2 0.0404508 0.35 -3.2 0.0445503 
0.35 -3.65 0.0445503 0.35 -3.65 0.0445503 0.35 -3.2 0.0445503 
0.4 -3.2 0.0475528 0.4 -3.65 0.0475528 0.4 -3.65 0.0475528 
0.4 -3.2 0.0475528 0.45 -3.2 0.0493844 0.45 -3.65 0.0493844 
0.45 -3.65 0.0493844 0.45 -3.2 0.0493844 0.5 -3.2 0.05 
0.5 -3.65 0.05 0.5 -3.65 0.05 0.5 -3.2 0.05 
0.55 -3.2 0.0493844 0.55 -3.65 0.0493844 0.55 -3.65 0.0493844 
0.55 -3.2 0.0493844 0.6 -3.2 0.0475528 0.6 -3.65 0.0475528 
0.6 -3.65 0.0475528 0.6 -3.2 0.0475528 0.65 -3.2 0.0445503 
0.65 -3.65 0.0445503 0.65 -3.65 0.0445503 0.65 -3.2 0.0445503 
0.7 -3.2 0.0404508 0.7 -3.65 0.0404508 0.7 -3.65 0.0404508 
0.7 -3.2 0.0404508 0.75 -3.2 0.0353553 0.75 -3.65 0.0353553 
0.75 -3.65 0.0353553 0.75 -3.2 0.0353553 0.8 -3.2 0.0293893 
0.8 -3.65 0.0293893 0.8 -3.65 0.0293893 0.8 -3.2 0.0293893 
0.85 -3.2 0.0226995 0.85 -3.65 0.0226995 0.85 -3.65 0.0226995 
0.85 -3.2 0.0226995 0.9 -3.2 0.0154509 0.9 -3.65 0.0154509 
0.9 -3.65 0.0154509 0.9 -3.2 0.0154509 0.95 -3.2 0.00782172 
0.95 -3.65 0.00782172 0.95 -3.65 0.00782172 0.95 -3.2 0.00782172 
1 -3.2 6.12323e-18 1 -3.65 6.12323e-18 0 -3.2 0 
0 -2.75 0 0.05 -2.75 0.00782172 0.05 -3.2 0.00782172 
0.05 -3.2 0.00782172 0.05 -2.75 0.00782172 0.1 -2.75 0.0154509 
0.1 -3.2 0.0154509 0.1 -3.2 0.0154509 0.1 -2.75 0.0154509 
0.15 -2.75 0.0226995 0.15 -3.2 0.0226995 0.15 -3.2 0.0226995 
0.15 -2.75 0.0226995 0.2 -2.75 0.0293893 0.2 -3.2 0.0293893 
0.2 -3.2 0.0293893 0.2 -2.75 0.0293893 0.25 -2.75 0.0353553 
0.25 -3.2 0.0353553 0.25 -3.2 0.0353553 0.25 -2.75 0.0353553 
0.3 -2.75 0.0404508 0.3 -3.2 0.0404508 0.3 -3.2 0.0404508 
0.3 -2.75 0.0404508 0.35 -2.75 0.0445503 0.35 -3.2 0.0445503 
0.35 -3.2 0.0445503 0.35 -2.75 0.0445503 0.4 -2.75 0.0475528 
0.4 -3.2 0.0475528 0.4 -3.2 0.0475528 0.4 -2.75 0.0475528 
0.45 -2.75 0.0493844 0.45 -3.2 0.0493844 0.45 -3.2 0.0493844 
0.45 -2.75 0.0493844 0.5 -2.75 0.05 0.5 -3.2 0.05 
0.5 -3.2 0.05 0.5 -2.75 0.05 0.55 -2.75 0.0493844 
0.55 -3.2 0.0493844 0.55 -3.2 0.0493844 0.55 -2.75 0.0493844 
0.6 -2.75 0.0475528 0.6 -3.2 0.0475528 0.6 -3.2 0.0475528 
0.6 -2.75 0.0475528 0.65 -2.75 0.0445503 0.65 -3.2 0.0445503 
0.65 -3.2 0.0445503 0.65 -2.75 0.0445503 0.7 -2.75 0.0404508 
0.7 -3.2 0.0404508 0.7 -3.2 0.0404508 0.7 -2.75 0.0404508 
0.75 -2.75 0.0353553 0.75 -3.2 0.0353553 0.75 -3.2 0.0353553 
0.75 -2.75 0.0353553 0.8 -2.75 0.0293893 0.8 -3.2 0.0293893 
0.8 -3.2 0.0293893 0.8 -2.75 0.0293893 0.85 -2.75 0.0226995 
0.85 -3.2 0.0226995 0.85 -3.2 0.0226995 0.85 -2.75 0.0226995 
0.9 -2.75 0.0154509 0.9 -3.2 0.0154509 0.9 -3.2 0.0154509 
0.9 -2.75 0.0154509 0.95 -2.75 0.00782172 0.95 -3.2 0.00782172 
0.95 -3.2 0.00782172 0.95 -2.75 0.00782172 1 -2.75 6.12323e-18 
1 -3.2 6.12323e-18 0 -2.75 0 0 -2.3 0 
0.05 -2.3 0.00782172 0.05 -2.75 0.00782172 0.05 -2.75 0.00782172 
0.05 -2.3 0.00782172 0.1 -2.3 0.0154509 0.1 -2.75 0.0154509 
0.1 -2.75 0.0154509 0.1 -2.3 0.0154509 0.15 -2.3 0.0226995 
0.15 -2.75 0.0226995 0.15 -2.75 0.0226995 0.15 -2.3 0.0226995 
0.2 -2.3 0.0293893 0.2 -2.75 0.0293893 0.2 -2.75 0.0293893 
0.2 -2.3 0.0293893 0.25 -2.3 0.0353553 0.25 -2.75 0.0353553 
0.25 -2.75 0.0353553 0.25 -2.3 0.0353553 0.3 -2.3 0.0404508 
0.3 -2.75 0.0404508 0.3 -2.75 0.0404508 0.3 -2.3 0.0404508 
0.35 -2.3 0.0445503 0.35 -2.75 0.0445503 0.35 -2.75 0.0445503 
0.35 -2.3 0.0445503 0.4 -2.3 0.0475528 0.4 -2.75 0.0475528 
0.4 -2.75 0.0475528 0.4 -2.3 0.0475528 0.45 -2.3 0.0493844 
0.45 -2.75 0.0493844 0.45 -2.75 0.0493844 0.45 -2.3 0.0493844 
0.5 -2.3 0.05 0.5 -2.75 0.05 0.5 -2.75 0.05 
0.5 -2.3 0.05 0.55 -2.3 0.0493844 0.55 -2.75 0.0493844 
0.55 -2.75 0.0493844 0.55 -2.3 0.0493844 0.6 -2.3 0.0475528 
0.6 -2.75 0.0475528 0.6 -2.75 0.0475528 0.6 -2.3 0.0475528 
0.65 -2.3 0.0445503 0.65 -2.75 0.0445503 0.65 -2.75 0.0445503 
0.65 -2.3 0.0445503 0.7 -2.3 0.0404508 0.7 -2.75 0.0404508 
0.7 -2.75 0.0404508 0.7 -2.3 0.0404508 0.75 -2.3 0.0353553 
0.75 -2.75 0.0353553 0.75 -2.75 0.0353553 0.75 -2.3 0.0353553 
0.8 -2.3 0.0293893 0.8 -2.75 0.0293893 0.8 -2.75 0.0293893 
0.8 -2.3 0.0293893 0.85 -2.3 0.0226995 0.85 -2.75 0.0226995 
0.85 -2.75 0.0226995 0.85 -2.3 0.0226995 0.9 -2.3 0.0154509 
0.9 -2.75 0.0154509 0.9 -2.75 0.0154509 0.9 -2.3 0.0154509 
0.95 -2.3 0.00782172 0.95 -2.75 0.00782172 0.95 -2.75 0.00782172 
0.95 -2.3 0.00782172 1 -2.3 6.12323e-18 1 -2.75 6.12323e-18 
0 -2.3 0 0 -1.85 0 0.05 -1.85 0.00782172 
0.05 -2.3 0.00782172 0.05 -2.3 0.00782172 0.05 -1.85 0.00782172 
0.1 -1.85 0.0154509 0.1 -2.3 0.0154509 0.1 -2.3 0.0154509 
0.1 -1.85 0.0154509 0.15 -1.85 0.0226995 0.15 -2.3 0.0226995 
0.15 -2.3 0.0226995 0.15 -1.85 0.0226995 0.2 -1.85 0.0293893 
0.2 -2.3 0.0293893 0.2 -2.3 0.0293893 0.2 -1.85 0.0293893 
0.25 -1.85 0.0353553 0.25 -2.3 0.0353553 0.25 -2.3 0.0353553 
[...]
CELL_DATA 1580
SCALARS CP float
LOOKUP_TABLE default
52.9293 27.45 21.7395 19.3462 18.1611 17.5154 17.1056 16.7643 16.3893 
15.9165 15.3078 14.5442 13.6216 12.546 11.3298 9.98768 8.53107 6.96067 
5.24779 3.26084 71.3978 37.3834 29.6823 26.335 24.5558 23.4773 22.7151 
22.0624 21.3949 20.6353 19.7371 18.6763 17.4451 16.0471 14.4928 12.7943 
10.959 8.97947 6.80903 4.26318 82.0503 42.9372 34.0053 30.0535 27.8942 
26.5402 25.5581 24.7163 23.8772 22.9554 21.8995 20.682 19.2932 17.7352 
16.0168 14.1485 12.1348 9.96332 7.57699 4.76247 88.9744 46.4896 36.7298 
32.3657 29.9451 28.402 27.2698 26.301 25.3486 24.3219 23.1662 21.8517 
20.3672 18.7135 16.8986 14.9315 12.8149 10.5334 8.02326 5.05383 93.8574 
48.9686 38.6123 33.9487 31.3374 29.6559 28.4145 27.3537 26.3202 25.2195 
23.9942 22.613 21.0636 19.3459 17.4672 15.4355 13.2523 10.8998 8.31023 
5.2414 97.5963 50.8495 40.0281 35.1292 32.3672 30.5761 29.2482 28.115 
27.0182 25.8601 24.5816 23.1501 21.5524 19.7879 17.863 15.7852 13.5548 
11.1527 8.50796 5.3705 100.806 52.4442 41.2132 36.1045 33.2066 31.3162 
29.9096 28.7107 27.557 26.3482 25.0235 23.5493 21.9116 20.1091 18.1479 
16.0347 13.7691 11.3307 8.64636 5.46048 104.169 54.0697 42.3852 37.0373 
33.9807 31.9722 30.4717 29.1951 27.9755 26.7101 25.3362 23.8193 22.1441 
20.3088 18.3186 16.1794 13.89 11.4289 8.72146 5.50875 109.318 56.3827 
43.9057 38.1139 34.7513 32.5127 30.8337 29.4178 28.0908 26.7447 25.3128 
23.7569 22.0584 20.2122 18.2209 16.0878 13.8097 11.3634 8.67293 5.47961 
126.3 62.1487 46.2524 38.5743 34.0356 31.0599 28.9511 27.3333 25.9767 
24.7299 23.4898 22.1862 20.7723 19.2182 17.5052 15.6198 13.5471 11.2569 
8.67047 5.52502 126.3 62.1487 46.2524 38.5743 34.0356 31.0599 28.9511 
27.3333 25.9767 24.7299 23.4898 22.1862 20.7723 19.2182 17.5052 15.6198 
13.5471 11.2569 8.67047 5.52502 109.318 56.3827 43.9057 38.1139 34.7513 
32.5127 30.8337 29.4178 28.0908 26.7447 25.3128 23.7569 22.0584 20.2122 
18.2209 16.0878 13.8097 11.3634 8.67293 5.47961 104.169 54.0697 42.3852 
37.0373 33.9807 31.9722 30.4717 29.1951 27.9755 26.7101 25.3362 23.8193 
22.1441 20.3088 18.3186 16.1794 13.89 11.4289 8.72146 5.50875 100.806 
52.4442 41.2132 36.1045 33.2066 31.3162 29.9096 28.7107 27.557 26.3482 
25.0235 23.5493 21.9116 20.1091 18.1479 16.0347 13.7691 11.3307 8.64636 
5.46048 97.5963 50.8495 40.0281 35.1292 32.3672 30.5761 29.2482 28.115 
27.0182 25.8601 24.5816 23.1501 21.5524 19.7879 17.863 15.7852 13.5548 
11.1527 8.50796 5.3705 93.8574 48.9686 38.6123 33.9487 31.3374 29.6559 
28.4145 27.3537 26.3202 25.2195 23.9942 22.613 21.0636 19.3459 17.4672 
15.4355 13.2523 10.8998 8.31023 5.2414 88.9744 46.4896 36.7298 32.3657 
29.9451 28.402 27.2698 26.301 25.3486 24.3219 23.1662 21.8517 20.3672 
18.7135 16.8986 14.9315 12.8149 10.5334 8.02326 5.05383 82.0503 42.9372 
34.0053 30.0535 27.8942 26.5402 25.5581 24.7163 23.8772 22.9554 21.8995 
20.682 19.2932 17.7352 16.0168 14.1485 12.1348 9.96332 7.57699 4.76247 
71.3978 37.3834 29.6823 26.335 24.5558 23.4773 22.7151 22.0624 21.3949 
20.6353 19.7371 18.6763 17.4451 16.0471 14.4928 12.7943 10.959 8.97947 
6.80903 4.26318 52.9293 27.45 21.7395 19.3462 18.1611 17.5154 17.1056 
16.7643 16.3893 15.9165 15.3078 14.5442 13.6216 12.546 11.3298 9.98768 
8.53107 6.96067 5.24779 3.26084 20.2005 6.9881 2.82949 0.109936 2.38675 
5.42167 10.4156 26.5677 7.2984 3.04089 22.4187 8.0478 3.33655 0.107853 
2.86804 6.31134 11.5621 27.7343 8.06896 2.91213 22.8501 8.24097 3.42502 
0.105323 2.95133 6.45735 11.7436 27.9199 8.20746 2.84895 22.9493 8.28826 
3.44966 0.110154 2.96442 6.48514 11.7812 27.9617 8.243 2.82426 23.035 
8.33666 3.48563 0.135956 2.94865 6.47961 11.7863 27.9806 8.27497 2.76736 
23.2421 8.45169 3.57498 0.207201 2.89515 6.44594 11.7768 28.009 8.34663 
2.61231 23.7052 8.70994 3.78008 0.376879 2.76077 6.35359 11.7393 28.0627 
8.50763 2.24655 24.6198 9.24851 4.23928 0.791001 2.39696 6.06585 11.5737 
28.1261 8.85184 1.38398 26.1594 10.2697 5.25365 1.89189 1.18976 4.80589 
10.4572 27.7797 9.61086 1.14638 27.8135 11.5634 6.84119 4.12852 2.22571 
0.804381 0.208175 0.770147 0.87293 0.651788 27.8135 11.5634 6.84119 4.12852 
2.22571 0.804381 0.208175 0.770147 0.87293 0.651788 26.1594 10.2697 5.25365 
1.89189 1.18976 4.80589 10.4572 27.7797 9.61086 1.14638 24.6198 9.24851 
4.23928 0.791001 2.39696 6.06585 11.5737 28.1261 8.85184 1.38398 23.7052 
8.70994 3.78008 0.376879 2.76077 6.35359 11.7393 28.0627 8.50763 2.24655 
23.2421 8.45169 3.57498 0.207201 2.89515 6.44594 11.7768 28.009 8.34663 
2.61231 23.035 8.33666 3.48563 0.135956 2.94865 6.47961 11.7863 27.9806 
8.27497 2.76736 22.9493 8.28826 3.44966 0.110154 2.96442 6.48514 11.7812 
27.9617 8.243 2.82426 22.8501 8.24097 3.42502 0.105323 2.95133 6.45735 
11.7436 27.9199 8.20746 2.84895 22.4187 8.0478 3.33655 0.107853 2.86804 
6.31134 11.5621 27.7343 8.06896 2.91213 20.2005 6.9881 2.82949 0.109936 
2.38675 5.42167 10.4156 26.5677 7.2984 3.04089 1.08868e-14 4.79128e-15 2.36058e-15 
4.72736e-16 6.32246e-16 7.62327e-16 7.93128e-16 2.07664e-15 2.24017e-15 3.39358e-15 8.95489e-15 2.81826e-15 
3.91071e-15 4.06803e-16 3.02357e-15 2.76719e-15 1.18595e-15 2.67202e-16 8.59308e-16 1.44428e-16 1.17532e-14 
3.89647e-15 3.40263e-15 3.51591e-15 2.41909e-15 2.30372e-15 2.91051e-15 1.93826e-16 1.3752e-15 8.58638e-16 
1.28724e-14 7.04663e-15 5.27189e-15 5.34131e-15 1.34149e-15 2.60432e-15 2.5025e-15 2.65707e-15 1.71842e-15 
4.55284e-16 1.58565e-14 8.56244e-15 4.66516e-15 4.6419e-15 7.44721e-15 3.83513e-16 2.63745e-15 5.66823e-15 
2.21909e-15 2.93418e-17 2.1748e-14 1.02639e-14 6.6864e-15 8.58774e-15 4.69888e-15 4.04521e-15 3.95645e-15 
2.68426e-15 3.95397e-15 4.20672e-15 2.68439e-14 1.30184e-14 1.22181e-14 7.31957e-15 6.68828e-15 5.7718e-15 
6.59203e-15 2.06645e-15 7.1103e-15 2.67382e-16 3.54836e-14 1.72616e-14 1.528e-14 7.7052e-15 7.42678e-15 
1.05695e-14 8.60436e-15 2.53019e-15 9.25911e-15 3.68691e-16 4.26328e-14 2.19999e-14 1.97976e-14 1.79545e-14 
1.22193e-14 1.09456e-14 1.41508e-14 2.09026e-15 7.09273e-15 5.82621e-15 5.80213e-14 3.64402e-14 2.24458e-14 
1.69621e-14 2.52805e-14 7.99729e-15 2.3399e-14 1.14095e-14 2.55672e-14 8.42028e-16 4.97202e-16 4.69969e-16 
3.71449e-16 2.9324e-15 1.26309e-15 3.46672e-16 2.42848e-15 1.24028e-15 1.54561e-15 1.62668e-15 3.01271e-15 
4.48741e-15 4.06851e-15 7.72976e-16 3.86525e-15 8.0205e-16 8.07502e-15 7.59036e-15 4.1168e-15 1.88605e-15 
1.88738e-15 8.89649e-15 1.72386e-15 3.16343e-15 4.44953e-15 5.86327e-16 1.22568e-15 5.74621e-15 1.69974e-15 
5.00992e-15 1.08267e-15 1.85046e-15 4.29325e-15 1.43972e-15 4.30863e-15 4.45982e-15 2.36156e-15 4.2583e-15 
4.59977e-15 1.01808e-14 2.90826e-15 1.04173e-14 5.78949e-15 9.9247e-15 3.76692e-15 1.13758e-14 1.05239e-14 
8.96916e-15 1.61068e-14 5.34142e-15 1.30626e-14 1.01208e-14 6.16818e-15 1.73024e-15 8.91098e-16 1.23548e-14 
3.27976e-15 3.75537e-15 2.71465e-14 2.08155e-15 5.1559e-15 1.14758e-14 3.23244e-15 3.29053e-15 8.07824e-15 
3.4133e-15 1.13917e-14 1.72985e-14 2.56979e-14 2.21473e-16 2.88453e-15 1.43667e-14 1.15237e-14 8.44561e-15 
4.60426e-14 1.69844e-14 9.68964e-15 2.01928e-14 4.05947e-14 9.53053e-15 1.373e-14 3.99682e-15 1.27069e-14 
9.14753e-15 1.88897e-14 2.51956e-14 2.03636e-14 1.24463e-14 3.68556e-14 1.60647e-14 9.37013e-15 2.82536e-14 
2.03681e-14 3.12635e-15 6.24236e-15 5.86787e-14 1.16301e-14 4.8352e-15 4.15777e-14 1.65615e-14 1.50925e-14 
2.70605e-17 6.48515e-14 7.68687e-14 5.25803e-14 1.08482e-14 3.8945e-14 2.88989e-14 3.78225e-14 2.33947e-14 
2.94131e-14 2.91738e-14 3.09676e-14 6.49063e-14 9.2899e-15 8.45429e-15 5.63532e-14 1.98282e-15 6.55437e-14 
1.32705e-14 3.0372e-14 5.25215e-14 5.01172e-15 1.92251e-14 3.08413e-14 8.27213e-15 1.1619e-16 2.08393e-15 
3.40915e-14 9.42348e-15 2.83481e-14 3.86726e-14 2.93826e-15 1.74551e-14 1.49698e-14 1.65423e-14 6.26754e-16 
3.72814e-14 2.80814e-14 1.94745e-14 3.4119e-14 5.709e-14 4.51805e-14 7.94026e-16 1.19051e-14 5.12895e-15 
3.00374e-14 1.0281e-14 2.23666e-14 2.68085e-14 3.58191e-14 1.01116e-14 2.09622e-14 2.92037e-15 4.36943e-15 
3.26257e-15 2.31102e-15 3.76579e-14 3.93415e-14 4.94109e-15 3.83548e-14 3.33172e-15 3.2695e-14 9.09632e-15 
5.84353e-14 2.08603e-14 2.80671e-14 4.04298e-14 1.4557e-14 3.67947e-14 3.10736e-14 3.98376e-14 3.1022e-14 
1.67991e-14 7.09723e-15 3.22899e-15 3.11008e-15 4.90819e-14 6.68712e-16 3.83713e-14 1.45757e-15 7.48022e-15 
1.25735e-14 8.30988e-15 2.11493e-14 1.76591e-14 1.84729e-14 3.31308e-14 8.53428e-14 1.72734e-14 6.59489e-15 
4.18655e-14 1.22504e-14 5.80233e-14 1.76247e-14 3.03591e-14 8.0208e-14 5.56369e-14 1.04377e-13 7.41221e-14 
6.188e-14 8.31553e-14 1.01802e-13 1.10601e-13 9.33761e-14 6.2633e-14 3.09742e-14 4.85173e-14 1.21801e-13 
2.40539e-14 1.42159e-14 1.13199e-14 1.14465e-14 9.24864e-14 4.1934e-14 1.5849e-14 3.19581e-14 2.18741e-15 
4.40286e-14 4.25598e-15 2.39455e-16 5.33215e-16 1.31325e-15 3.63288e-16 2.78456e-15 5.77373e-16 1.09256e-15 
8.00108e-16 1.34588e-15 2.12013e-15 2.96229e-16 3.72827e-16 9.38e-16 1.58771e-15 6.273e-16 1.10714e-15 
2.01629e-15 9.96904e-16 2.337e-15 7.80208e-16 2.40793e-15 7.74134e-16 4.72243e-15 2.04373e-15 4.62605e-15 
1.03197e-15 1.13149e-16 2.57003e-16 1.72486e-15 1.84139e-15 1.96183e-15 4.91669e-16 1.85064e-15 3.17025e-15 
3.12913e-15 6.17249e-16 4.01455e-15 8.91266e-16 3.85211e-15 5.24283e-15 5.66276e-15 2.92262e-15 3.71631e-15 
1.5691e-15 5.09102e-15 5.56141e-15 3.77273e-16 1.18986e-14 4.08193e-15 5.96455e-15 2.66049e-15 1.46341e-14 
5.06542e-15 1.0313e-14 5.66866e-15 3.20074e-15 1.19754e-14 6.71337e-15 3.86789e-16 1.87698e-14 8.05161e-15 
5.42784e-16 2.35195e-17 1.49303e-14 4.79278e-15 6.77467e-15 1.4637e-15 5.86759e-15 6.25679e-15 8.02996e-15 
4.29917e-15 1.2943e-14 1.72297e-15 1.14953e-14 1.25185e-14 1.87096e-14 1.1103e-14 5.89995e-15 1.46956e-14 
1.09502e-14 1.29158e-14 3.7329e-14 1.33617e-16 3.2076e-14 8.39389e-15 7.41319e-15 4.11796e-14 9.1873e-15 
1.46108e-14 8.97376e-15 3.91101e-15 6.59477e-15 4.28256e-15 1.14099e-14 1.18499e-14 1.34186e-14 1.21839e-14 
1.0834e-14 1.53695e-15 2.23317e-14 1.3362e-14 9.78022e-15 1.11779e-14 8.78661e-15 5.62292e-14 9.96916e-15 
2.35789e-15 4.69689e-14 1.95627e-14 1.57125e-15 2.42295e-14 1.92374e-14 1.19464e-14 1.39001e-14 7.22638e-15 
2.39509e-14 3.68022e-14 5.05077e-15 1.51432e-14 1.50258e-14 1.33582e-14 6.55456e-15 8.51768e-15 1.1357e-14 
1.69138e-14 2.93887e-15 1.56079e-14 7.05434e-15 1.8096e-14 1.21572e-14 2.2545e-14 2.45541e-14 5.29282e-15 
2.4017e-14 1.63285e-14 1.60725e-16 2.58381e-14 2.19634e-14 1.07383e-14 1.0321e-14 1.58369e-14 3.05286e-15 
5.0578e-15 4.17197e-15 8.54974e-15 1.23649e-14 1.58849e-14 1.1344e-14 1.77234e-14 2.61124e-14 7.29715e-15 
1.80827e-14 6.33256e-14 2.7803e-14 1.02801e-14 3.25626e-15 1.46403e-14 2.77319e-14 2.58195e-16 2.07652e-14 
2.22395e-14 3.41827e-15 1.87989e-14 3.03546e-14 1.011e-16 4.61299e-14 3.30123e-15 6.9836e-14 6.55707e-14 
2.42464e-14 1.06682e-14 1.5397e-14 1.91883e-14 1.98336e-14 1.91125e-14 1.72604e-14 5.09377e-15 2.13818e-14 
8.96669e-14 1.09192e-14 1.6233e-14 1.85106e-14 6.47306e-15 6.68797e-14 2.19324e-14 1.02706e-14 3.28178e-14 
1.72259e-14 2.3057e-14 3.99218e-15 8.23666e-15 3.92782e-15 2.81276e-14 6.27114e-16 5.83989e-15 3.64163e-14 
2.64876e-14 1.73294e-14 1.68749e-14 1.62204e-14 3.23515e-14 2.45909e-14 6.85522e-14 2.90493e-14 2.45844e-14 
2.53623e-14 2.97433e-14 4.44314e-14 3.53273e-14 1.15095e-13 5.09819e-14 1.31212e-13 3.09078e-14 1.03896e-13 
8.12774e-14 4.342e-14 3.07648e-14 7.26936e-15 2.54659e-14 1.31327e-14 24.5119 8.84126 5.28727 
3.87772 3.20833 2.8583 2.66422 2.55295 2.48858 2.45219 2.4333 2.42587 
2.42625 2.43224 2.44241 2.45589 2.4721 2.49069 2.51143 2.53419 2.55893 
2.58562 2.6143 2.64503 2.67789 2.71298 2.75042 2.79036 2.83294 2.87835 
2.92677 2.97841 3.03349 3.09226 3.15499 3.22196 3.29348 3.36988 3.45154 
3.53884 3.63221 3.7321 3.839 3.95346 4.07605 4.20739 4.34816 4.49908 
4.66094 4.83458 5.02093 5.22094 5.4357 5.66631 5.91399 6.18002 6.46573 
6.77251 7.10178 7.45492 7.83321 8.23768 8.66889 9.12664 9.60937 10.1134 
10.6319 11.1538 11.663 12.1423 12.7556 13.0969 13.2548 13.2892 13.2316 
13.1079 12.9389 12.7391 12.5172 12.2768 12.0166 11.7324 11.4182 11.0673 
10.6745 10.2371 9.75677 9.23989 8.69802 8.14641 7.60135 7.07689 6.58235 
6.12213 5.69697 5.30558 4.94576 4.61502 4.31088 4.03098 3.77316 3.53544 
3.31603 3.11331 2.9258 2.75219 2.59128 2.442 2.30335 2.17446 2.05453 
1.94283 1.83869 1.74152 1.65076 1.56593 1.48656 1.41224 1.34259 1.27726 
1.21594 1.15834 1.10418 1.05323 1.00525 0.960043 0.917414 0.877188 0.839204 
0.803311 0.769372 0.737259 0.706853 0.678046 0.650735 0.624828 0.600237 0.57688 
0.554684 0.533577 0.513495 0.494378 0.476168 0.458814 0.442266 0.426477 0.411407 
0.397013 0.38326 0.370112 0.357535 0.3455 0.333978 0.32294 0.312363 0.302222 
0.292496 0.283161 0.2742 0.265594 0.257324 0.249375 0.241731 0.234378 0.227301 
0.220488 0.213927 0.207606 0.201515 0.195643 0.189981 0.18452 0.179251 0.174166 
0.169259 0.164522 0.159948 0.155532 0.151267 0.147149 0.143171 0.13933 0.135621 
0.132039 0.12858 0.125241 0.122018 0.118906 0.115903 0.113005 0.110207 0.107507 
0.104901 0.102384 0.0999516 0.0975997 0.0953227 0.093115 0.0909701 0.0888809 0.0868394 
0.0848364 0.0828618 0.0809039 0.0789493 0.0769827 0.0749865 0.07294 0.0708192 0.0685953 
0.0662338 0.0636924 0.0609182 0.0578431 0.0543764 0.0503914 0.0457 0.039994 0.0326846 
0.0222661 24.6714 8.89881 5.32168 3.90296 3.22921 2.8769 2.68156 2.56957 
2.50478 2.46815 2.44914 2.44166 2.44205 2.44807 2.45831 2.47188 2.4882 
2.5069 2.52778 2.55069 2.57558 2.60245 2.63132 2.66225 2.69532 2.73064 
2.76832 2.80852 2.85138 2.89709 2.94582 2.9978 3.05324 3.11239 3.17553 
3.24293 3.31492 3.39182 3.47401 3.56188 3.65585 3.75639 3.86399 3.9792 
4.10258 4.23478 4.37646 4.52837 4.69128 4.86605 5.05361 5.25493 5.47108 
5.7032 5.95249 6.22025 6.50781 6.8166 7.14801 7.50345 7.8842 8.2913 
8.72532 9.18605 9.67193 10.1793 10.7011 11.2264 11.7389 12.2213 12.7556 
13.0969 13.2548 13.2892 13.2316 13.1079 12.9389 12.7391 12.5172 12.2768 
12.0166 11.7324 11.4182 11.0673 10.6745 10.2371 9.75677 9.23989 8.69802 
8.14641 7.60135 7.07689 6.58235 6.12213 5.69697 5.30558 4.94576 4.61502 
4.31088 4.03098 3.77316 3.53544 3.31603 3.11331 2.9258 2.75219 2.59128 
2.442 2.30335 2.17446 2.05453 1.94283 1.83869 1.74152 1.65076 1.56593 
1.48656 1.41224 1.34259 1.27726 1.21594 1.15834 1.10418 1.05323 1.00525 
0.960043 0.917414 0.877188 0.839204 0.803311 0.769372 0.737259 0.706853 0.678046 
0.650735 0.624828 0.600237 0.57688 0.554684 0.533577 0.513495 0.494378 0.476168 
0.458814 0.442266 0.426477 0.411407 0.397013 0.38326 0.370112 0.357535 0.3455 
0.333978 0.32294 0.312363 0.302222 0.292496 0.283161 0.2742 0.265594 0.257324 
0.249375 0.241731 0.234378 0.227301 0.220488 0.213927 0.207606 0.201515 0.195643 
0.189981 0.18452 0.179251 0.174166 0.169259 0.164522 0.159948 0.155532 0.151267 
0.147149 0.143171 0.13933 0.135621 0.132039 0.12858 0.125241 0.122018 0.118906 
0.115903 0.113005 0.110207 0.107507 0.104901 0.102384 0.0999516 0.0975997 0.0953227 
0.093115 0.0909701 0.0888809 0.0868394 0.0848364 0.0828618 0.0809039 0.0789493 0.0769827 
0.0749865 0.07294 0.0708192 0.0685953 0.0662338 0.0636924 0.0609182 0.0578431 0.0543764 
0.0503914 0.0457 0.039994 0.0326846 0.0222661 
METADATA
INFORMATION 0

FIELD FieldData 5
gid 1 1580 float
0 1 2 3 4 5 6 7 8 
9 10 11 12 13 14 15 16 17 
18 19 20 21 22 23 24 25 26 
27 28 29 30 31 32 33 34 35 
36 37 38 39 40 41 42 43 44 
45 46 47 48 49 50 51 52 53 
54 55 56 57 58 59 60 61 62 
63 64 65 66 67 68 69 70 71 
72 73 74 75 76 77 78 79 80 
81 82 83 84 85 86 87 88 89 
90 91 92 93 94 95 96 97 98 
99 100 101 102 103 104 105 106 107 
108 109 110 111 112 113 114 115 116 
117 118 119 120 121 122 123 124 125 
126 127 128 129 130 131 132 133 134 
135 136 137 138 139 140 141 142 143 
144 145 146 147 148 149 150 151 152 
153 154 155 156 157 158 159 160 161 
162 163 164 165 166 167 168 169 170 
171 172 173 174 175 176 177 178 179 
180 181 182 183 184 185 186 187 188 
189 190 191 192 193 194 195 196 197 
198 199 200 201 202 203 204 205 206 
207 208 209 210 211 212 213 214 215 
216 217 218 219 220 221 222 223 224 
225 226 227 228 229 230 231 232 233 
234 235 236 237 238 239 240 241 242 
243 244 245 246 247 248 249 250 251 
252 253 254 255 256 257 258 259 260 
261 262 263 264 265 266 267 268 269 
270 271 272 273 274 275 276 277 278 
279 280 281 282 283 284 285 286 287 
288 289 290 291 292 293 294 295 296 
297 298 299 300 301 302 303 304 305 
306 307 308 309 310 311 312 313 314 
315 316 317 318 319 320 321 322 323 
324 325 326 327 328 329 330 331 332 
333 334 335 336 337 338 339 340 341 
342 343 344 345 346 347 348 349 350 
351 352 353 354 355 356 357 358 359 
360 361 362 363 364 365 366 367 368 
369 370 371 372 373 374 375 376 377 
378 379 380 381 382 383 384 385 386 
387 388 389 390 391 392 393 394 395 
396 397 398 399 400 401 402 403 404 
405 406 407 408 409 410 411 412 413 
414 415 416 417 418 419 420 421 422 
423 424 425 426 427 428 429 430 431 
432 433 434 435 436 437 438 439 440 
441 442 443 444 445 446 447 448 449 
450 451 452 453 454 455 456 457 458 
459 460 461 462 463 464 465 466 467 
468 469 470 471 472 473 474 475 476 
477 478 479 480 481 482 483 484 485 
486 487 488 489 490 491 492 493 494 
495 496 497 498 499 500 501 502 503 
504 505 506 507 508 509 510 511 512 
513 514 515 516 517 518 519 520 521 
522 523 524 525 526 527 528 529 530 
531 532 533 534 535 536 537 538 539 
540 541 542 543 544 545 546 547 548 
549 550 551 552 553 554 555 556 557 
558 559 560 561 562 563 564 565 566 
567 568 569 570 571 572 573 574 575 
576 577 578 579 580 581 582 583 584 
585 586 587 588 589 590 591 592 593 
594 595 596 597 598 599 600 601 602 
603 604 605 606 607 608 609 610 611 
612 613 614 615 616 617 618 619 620 
621 622 623 624 625 626 627 628 629 
630 631 632 633 634 635 636 637 638 
639 640 641 642 643 644 645 646 647 
648 649 650 651 652 653 654 655 656 
657 658 659 660 661 662 663 664 665 
666 667 668 669 670 671 672 673 674 
675 676 677 678 679 680 681 682 683 
684 685 686 687 688 689 690 691 692 
693 694 695 696 697 698 699 700 701 
702 703 704 705 706 707 708 709 710 
711 712 713 714 715 716 717 718 719 
720 721 722 723 724 725 726 727 728 
729 730 731 732 733 734 735 736 737 
738 739 740 741 742 743 744 745 746 
747 748 749 750 751 752 753 754 755 
756 757 758 759 760 761 762 763 764 
765 766 767 768 769 770 771 772 773 
774 775 776 777 778 779 780 781 782 
783 784 785 786 787 788 789 790 791 
792 793 794 795 796 797 798 799 800 
801 802 803 804 805 806 807 808 809 
810 811 812 813 814 815 816 817 818 
819 820 821 822 823 824 825 826 827 
828 829 830 831 832 833 834 835 836 
837 838 839 840 841 842 843 844 845 
846 847 848 849 850 851 852 853 854 
855 856 857 858 859 860 861 862 863 
864 865 866 867 868 869 870 871 872 
873 874 875 876 877 878 879 880 881 
882 883 884 885 886 887 888 889 890 
891 892 893 894 895 896 897 898 899 
900 901 902 903 904 905 906 907 908 
909 910 911 912 913 914 915 916 917 
918 919 920 921 922 923 924 925 926 
927 928 929 930 931 932 933 934 935 
936 937 938 939 940 941 942 943 944 
945 946 947 948 949 950 951 952 953 
954 955 956 957 958 959 960 961 962 
963 964 965 966 967 968 969 970 971 
972 973 974 975 976 977 978 979 980 
981 982 983 984 985 986 987 988 989 
990 991 992 993 994 995 996 997 998 
999 1000 1001 1002 1003 1004 1005 1006 1007 
1008 1009 1010 1011 1012 1013 1014 1015 1016 
1017 1018 1019 1020 1021 1022 1023 1024 1025 
1026 1027 1028 1029 1030 1031 1032 1033 1034 
1035 1036 1037 1038 1039 1040 1041 1042 1043 
1044 1045 1046 1047 1048 1049 1050 1051 1052 
1053 1054 1055 1056 1057 1058 1059 1060 1061 
1062 1063 1064 1065 1066 1067 1068 1069 1070 
1071 1072 1073 1074 1075 1076 1077 1078 1079 
1080 1081 1082 1083 1084 1085 1086 1087 1088 
1089 1090 1091 1092 1093 1094 1095 1096 1097 
1098 1099 1100 1101 1102 1103 1104 1105 1106 
1107 1108 1109 1110 1111 1112 1113 1114 1115 
1116 1117 1118 1119 1120 1121 1122 1123 1124 
1125 1126 1127 1128 1129 1130 1131 1132 1133 
1134 1135 1136 1137 1138 1139 1140 1141 1142 
1143 1144 1145 1146 1147 1148 1149 1150 1151 
1152 1153 1154 1155 1156 1157 1158 1159 1160 