# vtk DataFile Version 5.1
vtk output
ASCII
DATASET POLYDATA
POINTS 6320 float
0 -5 0 0 -4.55 0 0.05 -4.55 0.00782172 
0.05 -5 0.00782172 0.05 -5 0.00782172 0.05 -4.55 0.00782172 
0.1 -4.55 0.0154509 0.1 -5 0.0154509 0.1 -5 0.0154509 
0.1 -4.55 0.0154509 0.15 -4.55 0.0226995 0.15 -5 0.0226995 
0.15 -5 0.0226995 0.15 -4.55 0.0226995 0.2 -4.55 0.0293893 
0.2 -5 0.0293893 0.2 -5 0.0293893 0.2 -4.55 0.0293893 
0.25 -4.55 0.0353553 0.25 -5 0.0353553 0.25 -5 0.0353553 
0.25 -4.55 0.0353553 0.3 -4.55 0.0404508 0.3 -5 0.0404508 
0.3 -5 0.0404508 0.3 -4.55 0.0404508 0.35 -4.55 0.0445503 
0.35 -5 0.0445503 0.35 -5 0.0445503 0.35 -4.55 0.0445503 
0.4 -4.55 0.0475528 0.4 -5 0.0475528 0.4 -5 0.0475528 
0.4 -4.55 0.0475528 0.45 -4.55 0.0493844 0.45 -5 0.0493844 
0.45 -5 0.0493844 0.45 -4.55 0.0493844 0.5 -4.55 0.05 
0.5 -5 0.05 0.5 -5 0.05 0.5 -4.55 0.05 
0.55 -4.55 0.0493844 0.55 -5 0.0493844 0.55 -5 0.0493844 
0.55 -4.55 0.0493844 0.6 -4.55 0.0475528 0.6 -5 0.0475528 
0.6 -5 0.0475528 0.6 -4.55 0.0475528 0.65 -4.55 0.0445503 
0.65 -5 0.0445503 0.65 -5 0.0445503 0.65 -4.55 0.0445503 
0.7 -4.55 0.0404508 0.7 -5 0.0404508 0.7 -5 0.0404508 
0.7 -4.55 0.0404508 0.75 -4.55 0.0353553 0.75 -5 0.0353553 
0.75 -5 0.0353553 0.75 -4.55 0.0353553 0.8 -4.55 0.0293893 
0.8 -5 0.0293893 0.8 -5 0.0293893 0.8 -4.55 0.0293893 
0.85 -4.55 0.0226995 0.85 -5 0.0226995 0.85 -5 0.0226995 
0.85 -4.55 0.0226995 0.9 -4.55 0.0154509 0.9 -5 0.0154509 
0.9 -5 0.0154509 0.9 -4.55 0.0154509 0.95 -4.55 0.00782172 
0.95 -5 0.00782172 0.95 -5 0.00782172 0.95 -4.55 0.00782172 
1 -4.55 6.12323e-18 1 -5 6.12323e-18 0 -4.55 0 
0 -4.1 0 0.05 -4.1 0.00782172 0.05 -4.55 0.00782172 
0.05 -4.55 0.00782172 0.05 -4.1 0.00782172 0.1 -4.1 0.0154509 
0.1 -4.55 0.0154509 0.1 -4.55 0.0154509 0.1 -4.1 0.0154509 
0.15 -4.1 0.0226995 0.15 -4.55 0.0226995 0.15 -4.55 0.0226995 
0.15 -4.1 0.0226995 0.2 -4.1 0.0293893 0.2 -4.55 0.0293893 
0.2 -4.55 0.0293893 0.2 -4.1 0.0293893 0.25 -4.1 0.0353553 
0.25 -4.55 0.0353553 0.25 -4.55 0.0353553 0.25 -4.1 0.0353553 
0.3 -4.1 0.0404508 0.3 -4.55 0.0404508 0.3 -4.55 0.0404508 
0.3 -4.1 0.0404508 0.35 -4.1 0.0445503 0.35 -4.55 0.0445503 
0.35 -4.55 0.0445503 0.35 -4.1 0.0445503 0.4 -4.1 0.0475528 
0.4 -4.55 0.0475528 0.4 -4.55 0.0475528 0.4 -4.1 0.0475528 
0.45 -4.1 0.0493844 0.45 -4.55 0.0493844 0.45 -4.55 0.0493844 
0.45 -4.1 0.0493844 0.5 -4.1 0.05 0.5 -4.55 0.05 
0.5 -4.55 0.05 0.5 -4.1 0.05 0.55 -4.1 0.0493844 
0.55 -4.55 0.0493844 0.55 -4.55 0.0493844 0.55 -4.1 0.0493844 
0.6 -4.1 0.0475528 0.6 -4.55 0.0475528 0.6 -4.55 0.0475528 
0.6 -4.1 0.0475528 0.65 -4.1 0.0445503 0.65 -4.55 0.0445503 
0.65 -4.55 0.0445503 0.65 -4.1 0.0445503 0.7 -4.1 0.0404508 
0.7 -4.55 0.0404508 0.7 -4.55 0.0404508 0.7 -4.1 0.0404508 
0.75 -4.1 0.0353553 0.75 -4.55 0.0353553 0.75 -4.55 0.0353553 
0.75 -4.1 0.0353553 0.8 -4.1 0.0293893 0.8 -4.55 0.0293893 
0.8 -4.55 0.0293893 0.8 -4.1 0.0293893 0.85 -4.1 0.0226995 
0.85 -4.55 0.0226995 0.85 -4.55 0.0226995 0.85 -4.1 0.0226995 
0.9 -4.1 0.0154509 0.9 -4.55 0.0154509 0.9 -4.55 0.0154509 
0.9 -4.1 0.0154509 0.95 -4.1 0.00782172 0.95 -4.55 0.00782172 
0.95 -4.55 0.00782172 0.95 -4.1 0.00782172 1 -4.1 6.12323e-18 
1 -4.55 6.12323e-18 0 -4.1 0 0 -3.65 0 
0.05 -3.65 0.00782172 0.05 -4.1 0.00782172 0.05 -4.1 0.00782172 
0.05 -3.65 0.00782172 0.1 -3.65 0.0154509 0.1 -4.1 0.0154509 
0.1 -4.1 0.0154509 0.1 -3.65 0.0154509 0.15 -3.65 0.0226995 
0.15 -4.1 0.0226995 0.15 -4.1 0.0226995 0.15 -3.65 0.0226995 
0.2 -3.65 0.0293893 0.2 -4.1 0.0293893 0.2 -4.1 0.0293893 
0.2 -3.65 0.0293893 0.25 -3.65 0.0353553 0.25 -4.1 0.0353553 
0.25 -4.1 0.0353553 0.25 -3.65 0.0353553 0.3 -3.65 0.0404508 
0.3 -4.1 0.0404508 0.3 -4.1 0.0404508 0.3 -3.65 0.0404508 
0.35 -3.65 0.0445503 0.35 -4.1 0.0445503 0.35 -4.1 0.0445503 
0.35 -3.65 0.0445503 0.4 -3.65 0.0475528 0.4 -4.1 0.0475528 
0.4 -4.1 0.0475528 0.4 -3.65 0.0475528 0.45 -3.65 0.0493844 
0.45 -4.1 0.0493844 0.45 -4.1 0.0493844 0.45 -3.65 0.0493844 
0.5 -3.65 0.05 0.5 -4.1 0.05 0.5 -4.1 0.05 
0.5 -3.65 0.05 0.55 -3.65 0.0493844 0.55 -4.1 0.0493844 
0.55 -4.1 0.0493844 0.55 -3.65 0.0493844 0.6 -3.65 0.0475528 
0.6 -4.1 0.0475528 0.6 -4.1 0.0475528 0.6 -3.65 0.0475528 
0.65 -3.65 0.0445503 0.65 -4.1 0.0445503 0.65 -4.1 0.0445503 
0.65 -3.65 0.0445503 0.7 -3.65 0.0404508 0.7 -4.1 0.0404508 
0.7 -4.1 0.0404508 0.7 -3.65 0.0404508 0.75 -3.65 0.0353553 
0.75 -4.1 0.0353553 0.75 -4.1 0.0353553 0.75 -3.65 0.0353553 
0.8 -3.65 0.0293893 0.8 -4.1 0.0293893 0.8 -4.1 0.0293893 
0.8 -3.65 0.0293893 0.85 -3.65 0.0226995 0.85 -4.1 0.0226995 
0.85 -4.1 0.0226995 0.85 -3.65 0.0226995 0.9 -3.65 0.0154509 
0.9 -4.1 0.0154509 0.9 -4.1 0.0154509 0.9 -3.65 0.0154509 
0.95 -3.65 0.00782172 0.95 -4.1 0.00782172 0.95 -4.1 0.00782172 
0.95 -3.65 0.00782172 1 -3.65 6.12323e-18 1 -4.1 6.12323e-18 
0 -3.65 0 0 -3.2 0 0.05 -3.2 0.00782172 
0.05 -3.65 0.00782172 0.05 -3.65 0.00782172 0.05 -3.2 0.00782172 
0.1 -3.2 0.0154509 0.1 -3.65 0.0154509 0.1 -3.65 0.0154509 
0.1 -3.2 0.0154509 0.15 -3.2 0.0226995 0.15 -3.65 0.0226995 
0.15 -3.65 0.0226995 0.15 -3.2 0.0226995 0.2 -3.2 0.0293893 
0.2 -3.65 0.0293893 0.2 -3.65 0.0293893 0.2 -3.2 0.0293893 
0.25 -3.2 0.0353553 0.25 -3.65 0.0353553 0.25 -3.65 0.0353553 
0.25 -3.2 0.0353553 0.3 -3.2 0.0404508 0.3 -3.65 0.0404508 
0.3 -3.65 0.0404508 0.3 -3.2 0.0404508 0.35 -3.2 0.0445503 
0.35 -3.65 0.0445503 0.35 -3.65 0.0445503 0.35 -3.2 0.0445503 
0.4 -3.2 0.0475528 0.4 -3.65 0.0475528 0.4 -3.65 0.0475528 
0.4 -3.2 0.0475528 0.45 -3.2 0.0493844 0.45 -3.65 0.0493844 
0.45 -3.65 0.0493844 0.45 -3.2 0.0493844 0.5 -3.2 0.05 
0.5 -3.65 0.05 0.5 -3.65 0.05 0.5 -3.2 0.05 
0.55 -3.2 0.0493844 0.55 -3.65 0.0493844 0.55 -3.65 0.0493844 
0.55 -3.2 0.0493844 0.6 -3.2 0.0475528 0.6 -3.65 0.0475528 
0.6 -3.65 0.0475528 0.6 -3.2 0.0475528 0.65 -3.2 0.0445503 
0.65 -3.65 0.0445503 0.65 -3.65 0.0445503 0.65 -3.2 0.0445503 
0.7 -3.2 0.0404508 0.7 -3.65 0.0404508 0.7 -3.65 0.0404508 
0.7 -3.2 0.0404508 0.75 -3.2 0.0353553 0.75 -3.65 0.0353553 
0.75 -3.65 0.0353553 0.75 -3.2 0.0353553 0.8 -3.2 0.0293893 
0.8 -3.65 0.0293893 0.8 -3.65 0.0293893 0.8 -3.2 0.0293893 
0.85 -3.2 0.0226995 0.85 -3.65 0.0226995 0.85 -3.65 0.0226995 
0.85 -3.2 0.0226995 0.9 -3.2 0.0154509 0.9 -3.65 0.0154509 
0.9 -3.65 0.0154509 0.9 -3.2 0.0154509 0.95 -3.2 0.00782172 
0.95 -3.65 0.00782172 0.95 -3.65 0.00782172 0.95 -3.2 0.00782172 
1 -3.2 6.12323e-18 1 -3.65 6.12323e-18 0 -3.2 0 
0 -2.75 0 0.05 -2.75 0.00782172 0.05 -3.2 0.00782172 
0.05 -3.2 0.00782172 0.05 -2.75 0.00782172 0.1 -2.75 0.0154509 
0.1 -3.2 0.0154509 0.1 -3.2 0.0154509 0.1 -2.75 0.0154509 
0.15 -2.75 0.0226995 0.15 -3.2 0.0226995 0.15 -3.2 0.0226995 
0.15 -2.75 0.0226995 0.2 -2.75 0.0293893 0.2 -3.2 0.0293893 
0.2 -3.2 0.0293893 0.2 -2.75 0.0293893 0.25 -2.75 0.0353553 
0.25 -3.2 0.0353553 0.25 -3.2 0.0353553 0.25 -2.75 0.0353553 
0.3 -2.75 0.0404508 0.3 -3.2 0.0404508 0.3 -3.2 0.0404508 
0.3 -2.75 0.0404508 0.35 -2.75 0.0445503 0.35 -3.2 0.0445503 
0.35 -3.2 0.0445503 0.35 -2.75 0.0445503 0.4 -2.75 0.0475528 
0.4 -3.2 0.0475528 0.4 -3.2 0.0475528 0.4 -2.75 0.0475528 
0.45 -2.75 0.0493844 0.45 -3.2 0.0493844 0.45 -3.2 0.0493844 
0.45 -2.75 0.0493844 0.5 -2.75 0.05 0.5 -3.2 0.05 
0.5 -3.2 0.05 0.5 -2.75 0.05 0.55 -2.75 0.0493844 
0.55 -3.2 0.0493844 0.55 -3.2 0.0493844 0.55 -2.75 0.0493844 
0.6 -2.75 0.0475528 0.6 -3.2 0.0475528 0.6 -3.2 0.0475528 
0.6 -2.75 0.0475528 0.65 -2.75 0.0445503 0.65 -3.2 0.0445503 
0.65 -3.2 0.0445503 0.65 -2.75 0.0445503 0.7 -2.75 0.0404508 
0.7 -3.2 0.0404508 0.7 -3.2 0.0404508 0.7 -2.75 0.0404508 
0.75 -2.75 0.0353553 0.75 -3.2 0.0353553 0.75 -3.2 0.0353553 
0.75 -2.75 0.0353553 0.8 -2.75 0.0293893 0.8 -3.2 0.0293893 
0.8 -3.2 0.0293893 0.8 -2.75 0.0293893 0.85 -2.75 0.0226995 
0.85 -3.2 0.0226995 0.85 -3.2 0.0226995 0.85 -2.75 0.0226995 
0.9 -2.75 0.0154509 0.9 -3.2 0.0154509 0.9 -3.2 0.0154509 
0.9 -2.75 0.0154509 0.95 -2.75 0.00782172 0.95 -3.2 0.00782172 
0.95 -3.2 0.00782172 0.95 -2.75 0.00782172 1 -2.75 6.12323e-18 
1 -3.2 6.12323e-18 0 -2.75 0 0 -2.3 0 
0.05 -2.3 0.00782172 0.05 -2.75 0.00782172 0.05 -2.75 0.00782172 
0.05 -2.3 0.00782172 0.1 -2.3 0.0154509 0.1 -2.75 0.0154509 
0.1 -2.75 0.0154509 0.1 -2.3 0.0154509 0.15 -2.3 0.0226995 
0.15 -2.75 0.0226995 0.15 -2.75 0.0226995 0.15 -2.3 0.0226995 
0.2 -2.3 0.0293893 0.2 -2.75 0.0293893 0.2 -2.75 0.0293893 
0.2 -2.3 0.0293893 0.25 -2.3 0.0353553 0.25 -2.75 0.0353553 
0.25 -2.75 0.0353553 0.25 -2.3 0.0353553 0.3 -2.3 0.0404508 
0.3 -2.75 0.0404508 0.3 -2.75 0.0404508 0.3 -2.3 0.0404508 
0.35 -2.3 0.0445503 0.35 -2.75 0.0445503 0.35 -2.75 0.0445503 
0.35 -2.3 0.0445503 0.4 -2.3 0.0475528 0.4 -2.75 0.0475528 
0.4 -2.75 0.0475528 0.4 -2.3 0.0475528 0.45 -2.3 0.0493844 
0.45 -2.75 0.0493844 0.45 -2.75 0.0493844 0.45 -2.3 0.0493844 
0.5 -2.3 0.05 0.5 -2.75 0.05 0.5 -2.75 0.05 
0.5 -2.3 0.05 0.55 -2.3 0.0493844 0.55 -2.75 0.0493844 
0.55 -2.75 0.0493844 0.55 -2.3 0.0493844 0.6 -2.3 0.0475528 
0.6 -2.75 0.0475528 0.6 -2.75 0.0475528 0.6 -2.3 0.0475528 
0.65 -2.3 0.0445503 0.65 -2.75 0.0445503 0.65 -2.75 0.0445503 
0.65 -2.3 0.0445503 0.7 -2.3 0.0404508 0.7 -2.75 0.0404508 
0.7 -2.75 0.0404508 0.7 -2.3 0.0404508 0.75 -2.3 0.0353553 
0.75 -2.75 0.0353553 0.75 -2.75 0.0353553 0.75 -2.3 0.0353553 
0.8 -2.3 0.0293893 0.8 -2.75 0.0293893 0.8 -2.75 0.0293893 
0.8 -2.3 0.0293893 0.85 -2.3 0.0226995 0.85 -2.75 0.0226995 
0.85 -2.75 0.0226995 0.85 -2.3 0.0226995 0.9 -2.3 0.0154509 
0.9 -2.75 0.0154509 0.9 -2.75 0.0154509 0.9 -2.3 0.0154509 
0.95 -2.3 0.00782172 0.95 -2.75 0.00782172 0.95 -2.75 0.00782172 
0.95 -2.3 0.00782172 1 -2.3 6.12323e-18 1 -2.75 6.12323e-18 
0 -2.3 0 0 -1.85 0 0.05 -1.85 0.00782172 
0.05 -2.3 0.00782172 0.05 -2.3 0.00782172 0.05 -1.85 0.00782172 
0.1 -1.85 0.0154509 0.1 -2.3 0.0154509 0.1 -2.3 0.0154509 
0.1 -1.85 0.0154509 0.15 -1.85 0.0226995 0.15 -2.3 0.0226995 
0.15 -2.3 0.0226995 0.15 -1.85 0.0226995 0.2 -1.85 0.0293893 
0.2 -2.3 0.0293893 0.2 -2.3 0.0293893 0.2 -1.85 0.0293893 
0.25 -1.85 0.0353553 0.25 -2.3 0.0353553 0.25 -2.3 0.0353553 
[...]
CELL_DATA 1580
SCALARS CP float
LOOKUP_TABLE default
15.9136 10.2027 9.71243 10.045 10.6242 11.2516 11.8246 12.2775 12.5648 
12.6558 12.5327 12.1892 11.6293 10.8656 9.91643 8.80291 7.54472 6.15365 
4.61826 2.84256 25.5423 15.4422 13.9762 13.8825 14.229 14.7091 15.1737 
15.5325 15.7258 15.7134 15.4715 14.99 14.2706 13.3248 12.17 10.8268 
9.31277 7.63534 5.77109 3.58606 31.5176 18.5713 16.4264 16.0058 16.152 
16.4911 16.8456 17.1111 17.2196 17.1261 16.8034 16.2393 15.4342 14.3981 
13.1479 11.7027 10.0787 8.28008 6.27683 3.91616 35.4549 20.5963 17.9844 
17.3333 17.3349 17.5704 17.8436 18.0408 18.0884 17.9383 17.5613 16.9438 
16.085 14.9946 13.6885 12.1852 10.4998 8.63439 6.55509 4.09829 38.204 
21.9942 19.0483 18.2303 18.1264 18.2859 18.4994 18.6464 18.65 18.4596 
18.0445 17.3901 16.4952 15.3688 14.0263 12.4858 10.7614 8.85423 6.72764 
4.21126 40.2445 23.0215 19.8226 18.877 18.6918 18.7925 18.9597 19.0682 
19.038 18.817 18.3734 17.6921 16.771 15.619 14.2511 12.6849 10.9342 
8.99897 6.841 4.28536 41.8999 23.8427 20.4322 19.3783 19.1231 19.1727 
19.2995 19.3744 19.3151 19.0681 18.601 17.8977 16.9562 15.7847 14.3982 
12.8138 11.045 9.09101 6.91259 4.33191 43.514 24.6162 20.9844 19.813 
19.4791 19.4698 19.5496 19.5855 19.4932 19.2181 18.7267 18.0027 17.0435 
15.8569 14.4575 12.8622 11.084 9.12174 6.93552 4.34639 45.9351 25.6789 
21.6591 20.2653 19.7747 19.6453 19.6302 19.5911 19.4406 19.1218 18.5997 
17.8563 16.8875 15.6997 14.306 12.7221 10.9597 9.01731 6.8547 4.29488 
54.6537 28.6114 22.7942 20.3778 19.2219 18.6499 18.3524 18.1541 17.9426 
17.6411 17.1974 16.5776 15.763 14.7462 13.5281 12.1139 10.5076 8.70272 
6.65744 4.19668 54.6537 28.6114 22.7942 20.3778 19.2219 18.6499 18.3524 
18.1541 17.9426 17.6411 17.1974 16.5776 15.763 14.7462 13.5281 12.1139 
10.5076 8.70272 6.65744 4.19668 45.9351 25.6789 21.6591 20.2653 19.7747 
19.6453 19.6302 19.5911 19.4406 19.1218 18.5997 17.8563 16.8875 15.6997 
14.306 12.7221 10.9597 9.01731 6.8547 4.29488 43.514 24.6162 20.9844 
19.813 19.4791 19.4698 19.5496 19.5855 19.4932 19.2181 18.7267 18.0027 
17.0435 15.8569 14.4575 12.8622 11.084 9.12174 6.93552 4.34639 41.8999 
23.8427 20.4322 19.3783 19.1231 19.1727 19.2995 19.3744 19.3151 19.0681 
18.601 17.8977 16.9562 15.7847 14.3982 12.8138 11.045 9.09101 6.91259 
4.33191 40.2445 23.0215 19.8226 18.877 18.6918 18.7925 18.9597 19.0682 
19.038 18.817 18.3734 17.6921 16.771 15.619 14.2511 12.6849 10.9342 
8.99897 6.841 4.28536 38.204 21.9942 19.0483 18.2303 18.1264 18.2859 
18.4994 18.6464 18.65 18.4596 18.0445 17.3901 16.4952 15.3688 14.0263 
12.4858 10.7614 8.85423 6.72764 4.21126 35.4549 20.5963 17.9844 17.3333 
17.3349 17.5704 17.8436 18.0408 18.0884 17.9383 17.5613 16.9438 16.085 
14.9946 13.6885 12.1852 10.4998 8.63439 6.55509 4.09829 31.5176 18.5713 
16.4264 16.0058 16.152 16.4911 16.8456 17.1111 17.2196 17.1261 16.8034 
16.2393 15.4342 14.3981 13.1479 11.7027 10.0787 8.28008 6.27683 3.91616 
25.5423 15.4422 13.9762 13.8825 14.229 14.7091 15.1737 15.5325 15.7258 
15.7134 15.4715 14.99 14.2706 13.3248 12.17 10.8268 9.31277 7.63534 
5.77109 3.58606 15.9136 10.2027 9.71243 10.045 10.6242 11.2516 11.8246 
12.2775 12.5648 12.6558 12.5327 12.1892 11.6293 10.8656 9.91643 8.80291 
7.54472 6.15365 4.61826 2.84256 7.24889 2.23808 0.567123 0.60476 1.76459 
3.2713 5.88263 14.5267 3.86239 2.73643 7.64278 2.36441 0.502521 0.869171 
2.22317 3.89009 6.57875 15.1418 4.16475 3.11073 7.52056 2.27961 0.407513 
0.982578 2.35269 4.02545 6.70216 15.2253 4.16967 3.28554 7.39449 2.21232 
0.352284 1.03279 2.39882 4.06562 6.73222 15.2371 4.15124 3.37577 7.3472 
2.19115 0.337578 1.04443 2.40845 4.07329 6.7373 15.2378 4.14453 3.40097 
7.41217 2.2304 0.370275 1.01645 2.38543 4.05618 6.7276 15.2385 4.1597 
3.35303 7.64018 2.3604 0.476372 0.925366 2.30903 3.99741 6.6919 15.237 
4.20765 3.19168 8.11841 2.64527 0.723301 0.697165 2.10043 3.81921 6.56377 
15.1945 4.29823 2.80052 8.91937 3.17855 1.25603 0.113975 1.4515 3.12156 
5.89128 14.7342 4.30195 1.77032 9.76861 3.84184 2.069 1.0307 0.297114 
0.243309 0.60347 0.750612 0.678498 0.456485 9.76861 3.84184 2.069 1.0307 
0.297114 0.243309 0.60347 0.750612 0.678498 0.456485 8.91937 3.17855 1.25603 
0.113975 1.4515 3.12156 5.89128 14.7342 4.30195 1.77032 8.11841 2.64527 
0.723301 0.697165 2.10043 3.81921 6.56377 15.1945 4.29823 2.80052 7.64018 
2.3604 0.476372 0.925366 2.30903 3.99741 6.6919 15.237 4.20765 3.19168 
7.41217 2.2304 0.370275 1.01645 2.38543 4.05618 6.7276 15.2385 4.1597 
3.35303 7.3472 2.19115 0.337578 1.04443 2.40845 4.07329 6.7373 15.2378 
4.14453 3.40097 7.39449 2.21232 0.352284 1.03279 2.39882 4.06562 6.73222 
15.2371 4.15124 3.37577 7.52056 2.27961 0.407513 0.982578 2.35269 4.02545 
6.70216 15.2253 4.16967 3.28554 7.64278 2.36441 0.502521 0.869171 2.22317 
3.89009 6.57875 15.1418 4.16475 3.11073 7.24889 2.23808 0.567123 0.60476 
1.76459 3.2713 5.88263 14.5267 3.86239 2.73643 7.40775e-15 3.27723e-15 2.32109e-15 
1.0946e-15 4.67296e-16 1.82158e-15 1.20448e-15 6.62526e-16 1.5393e-16 8.05719e-16 7.83442e-15 3.6675e-15 
2.70223e-15 2.32646e-15 1.36584e-15 2.21831e-15 1.56612e-15 1.07553e-15 6.35944e-16 5.8077e-16 9.41382e-15 
4.64804e-15 3.7679e-15 2.87814e-15 1.94917e-15 1.50431e-15 1.92472e-15 1.32672e-15 1.23171e-15 3.16208e-17 
1.20573e-14 6.06695e-15 4.47502e-15 3.57829e-15 2.48432e-15 2.32744e-15 1.85676e-15 2.40939e-15 1.22546e-15 
1.59285e-15 1.4673e-14 7.78992e-15 5.02182e-15 4.42157e-15 4.754e-15 3.15349e-15 2.09624e-15 2.8307e-15 
2.53639e-15 9.13139e-16 1.99686e-14 9.16144e-15 7.10129e-15 5.35845e-15 5.06623e-15 3.32689e-15 4.0704e-15 
4.66873e-15 1.63223e-15 1.90257e-15 2.76345e-14 1.10711e-14 9.56561e-15 8.34684e-15 6.72009e-15 5.74736e-15 
4.49346e-15 3.71865e-15 3.60159e-15 2.34985e-15 3.63019e-14 1.68697e-14 1.34211e-14 1.01286e-14 6.08267e-15 
8.13785e-15 6.49997e-15 4.37049e-15 1.5524e-15 5.34457e-15 5.1315e-14 2.35043e-14 2.08601e-14 1.06505e-14 
8.82647e-15 1.37176e-14 4.2268e-15 3.00769e-15 6.42799e-15 5.0838e-15 8.05113e-14 3.40488e-14 2.74621e-14 
1.79459e-14 1.44434e-14 6.03443e-15 8.33616e-15 1.09149e-14 6.79592e-15 3.32114e-15 5.40741e-16 4.05335e-16 
9.43207e-16 2.08447e-16 8.05399e-16 6.01968e-16 2.74487e-16 1.1258e-16 9.26216e-17 2.13328e-16 2.89476e-16 
6.40809e-16 1.96226e-15 1.12607e-15 9.78389e-16 1.26387e-15 1.06547e-15 3.41454e-16 3.83491e-16 4.93337e-16 
1.88534e-15 9.59862e-16 3.92049e-17 3.50555e-15 2.62585e-15 4.02856e-16 1.29852e-15 1.04819e-15 9.90059e-16 
2.66307e-16 4.08264e-15 2.6898e-15 1.00384e-15 8.70109e-16 1.04894e-15 1.86518e-15 1.34508e-15 3.51263e-15 
2.14454e-15 8.36097e-15 2.74671e-15 3.44075e-15 1.4386e-15 6.65319e-15 2.50084e-15 8.10953e-15 4.20143e-15 
3.23496e-15 4.21557e-15 4.16516e-15 6.83628e-15 4.89525e-15 2.79091e-15 2.23479e-15 7.41207e-15 3.15274e-15 
3.96901e-15 2.14711e-15 5.04313e-15 1.81921e-15 6.71234e-15 1.75501e-15 4.26955e-15 3.90724e-15 7.60584e-15 
6.6422e-15 7.90813e-15 1.86531e-15 1.01333e-14 8.28136e-15 7.72159e-15 8.63569e-15 4.86359e-15 9.49398e-15 
1.32881e-14 4.34758e-15 4.02259e-15 2.80735e-15 1.07232e-14 1.78868e-14 3.39801e-16 5.1312e-15 9.61906e-15 
1.42298e-14 1.68061e-14 1.74324e-14 1.29071e-14 1.06492e-14 5.83445e-15 7.46075e-15 2.18789e-14 9.67686e-15 
2.29975e-14 1.16515e-14 7.4431e-15 2.25221e-14 4.77143e-15 6.76043e-15 1.24411e-14 3.29016e-15 1.08975e-14 
1.53938e-14 2.60866e-14 1.26324e-14 3.14264e-14 1.73874e-14 1.65406e-15 5.01944e-15 2.09554e-16 1.29998e-14 
3.2089e-16 6.62111e-15 1.71116e-14 4.29678e-15 3.59369e-14 2.12564e-15 7.20534e-15 1.06845e-14 1.11776e-14 
2.87767e-15 2.75211e-14 1.08271e-14 4.41646e-15 1.36521e-14 1.01719e-14 1.49632e-14 1.15284e-14 1.55139e-15 
1.81158e-14 2.06518e-14 2.07629e-14 2.14614e-14 8.85996e-15 1.51353e-14 1.394e-14 1.42707e-14 1.99084e-14 
1.28924e-14 1.67112e-14 4.8929e-15 6.92972e-15 7.75927e-15 1.33251e-14 1.22902e-14 3.60083e-15 2.11361e-14 
1.02821e-14 8.07801e-15 5.63352e-15 1.4671e-15 2.3357e-14 3.2543e-15 1.88287e-14 1.97287e-14 6.57215e-15 
2.24046e-14 2.35636e-14 1.43566e-14 5.26922e-15 2.74652e-15 4.77364e-15 1.70433e-14 2.30002e-14 2.21894e-14 
2.27432e-14 2.00692e-14 1.2963e-14 8.59794e-15 7.65838e-15 4.11293e-14 2.14432e-14 4.71301e-16 1.22286e-14 
3.09304e-15 1.70687e-14 8.38922e-15 1.271e-14 1.90464e-14 3.04773e-15 2.38462e-14 2.63996e-14 5.31954e-15 
1.83907e-14 8.04767e-15 7.27435e-15 1.53021e-14 1.76458e-14 4.02509e-14 1.89807e-15 3.82074e-14 4.43691e-15 
5.6889e-14 1.33973e-14 1.7959e-15 1.02027e-14 4.04393e-14 3.54448e-15 1.66486e-14 5.90587e-14 2.56922e-14 
1.74622e-15 9.76067e-15 4.78512e-14 6.14359e-14 1.47748e-14 2.2721e-14 4.59894e-14 3.70929e-16 1.13918e-14 
8.48713e-15 1.35484e-14 2.49078e-14 1.97916e-14 1.44033e-14 1.89053e-14 7.08331e-15 1.14371e-14 1.8669e-14 
8.27477e-15 6.54157e-15 6.94256e-16 3.26261e-16 2.20616e-16 3.08867e-16 6.13932e-16 6.91704e-16 9.29252e-16 
5.69795e-16 1.60537e-16 1.13058e-15 7.53546e-16 9.24706e-17 6.37085e-16 5.61447e-16 3.22174e-16 3.32883e-16 
1.03205e-15 2.61479e-15 5.13679e-16 1.27734e-16 3.88766e-16 2.31084e-15 1.16816e-15 2.46424e-16 5.14608e-16 
1.59758e-15 1.16432e-15 1.16818e-15 2.48936e-15 4.81071e-15 7.86434e-16 3.69694e-15 3.52337e-15 1.08824e-15 
4.75807e-16 6.88423e-16 1.5451e-15 1.13387e-15 1.00526e-15 1.94976e-15 6.34314e-16 1.62558e-16 2.20292e-15 
1.5361e-15 2.55294e-15 1.38416e-15 3.27552e-15 1.84899e-15 3.71789e-15 2.78269e-15 2.4078e-15 1.0968e-15 
3.11663e-15 4.09407e-16 2.20475e-15 4.98341e-15 2.22715e-15 2.73034e-15 1.91638e-16 2.13073e-15 7.32206e-15 
1.88216e-15 4.52015e-15 2.5862e-15 5.07236e-15 2.69678e-15 3.87603e-15 2.7862e-15 6.90715e-15 4.20848e-15 
1.35782e-15 4.75976e-15 1.07527e-15 9.61414e-16 7.16227e-15 1.6518e-14 1.19674e-16 2.59707e-14 6.48065e-15 
5.30605e-15 8.54734e-15 7.99695e-15 4.9049e-15 2.69627e-14 7.8711e-16 4.97021e-15 2.39126e-14 4.25092e-15 
7.13891e-15 1.29094e-14 2.81873e-15 1.00116e-14 8.81942e-15 8.51358e-15 1.69621e-14 5.34881e-15 7.63667e-15 
4.20018e-16 9.25525e-15 9.42091e-15 1.22364e-15 2.37577e-15 5.58433e-15 2.57513e-14 1.31284e-14 7.9468e-15 
1.15803e-14 1.24706e-14 8.56211e-15 1.27332e-14 7.63363e-15 1.01924e-14 5.51425e-15 4.50397e-15 8.8657e-15 
1.72663e-16 1.7648e-15 1.37789e-14 8.59821e-15 1.69134e-14 1.80686e-14 7.68634e-15 3.75148e-15 7.03469e-15 
1.3511e-14 4.44521e-15 2.98707e-14 2.47888e-14 1.99187e-14 1.48562e-15 1.77801e-14 4.918e-15 2.96659e-14 
9.04265e-16 6.41353e-15 4.22825e-15 2.85911e-14 8.06076e-15 1.72201e-14 2.00792e-15 1.59988e-14 4.13306e-15 
1.85302e-14 3.86051e-15 6.77825e-15 4.99908e-15 3.03433e-15 2.8992e-14 6.86697e-16 4.9186e-14 1.24509e-14 
3.01567e-14 9.38156e-15 2.81246e-14 1.85134e-14 2.69185e-14 4.79394e-15 4.05202e-14 4.41695e-14 2.77752e-14 
2.11809e-14 3.95928e-14 1.18548e-14 1.60267e-14 5.39417e-15 3.08774e-14 7.67666e-15 6.91468e-15 3.30902e-14 
5.62433e-15 4.05127e-14 2.45101e-15 2.19299e-15 2.51557e-14 2.06362e-15 3.41256e-15 2.64144e-15 2.03932e-16 
6.30003e-15 7.43492e-15 1.33471e-15 5.1079e-15 7.20134e-15 3.78717e-15 2.03727e-14 5.2564e-15 3.40417e-14 
1.38383e-15 3.25579e-14 4.21796e-14 1.50211e-14 1.63762e-14 6.50535e-15 3.77099e-15 8.84236e-15 9.06868e-15 
2.91938e-14 8.95047e-15 3.13606e-14 4.18566e-15 3.78195e-14 2.25192e-15 1.0206e-14 5.25541e-14 1.755e-14 
1.45689e-14 3.83204e-14 2.84411e-15 2.21064e-14 7.80903e-15 2.74616e-14 1.45968e-14 3.13974e-14 4.10648e-16 
1.93082e-15 2.0085e-14 1.58961e-14 1.47926e-14 3.10423e-14 1.37365e-14 11.5633 4.17652 2.50242 
1.8393 1.52514 1.36157 1.27157 1.22069 1.19198 1.17654 1.16944 1.16783 
1.17001 1.17492 1.18193 1.19061 1.2007 1.21204 1.22453 1.23813 1.25282 
1.2686 1.28549 1.30354 1.3228 1.34332 1.36518 1.38846 1.41324 1.43964 
1.46775 1.49768 1.52958 1.56357 1.59981 1.63845 1.67967 1.72366 1.77061 
1.82075 1.87432 1.93156 1.99275 2.05819 2.12819 2.20311 2.28332 2.36921 
2.46122 2.55981 2.6655 2.77881 2.90034 3.0307 3.17056 3.32062 3.48163 
3.65436 3.8396 4.03815 4.25075 4.47804 4.72047 4.97814 5.25053 5.5362 
5.83227 6.13396 6.4345 6.72686 7.10456 7.34625 7.50018 7.59527 7.64458 
7.65827 7.64411 7.60731 7.55061 7.47444 7.37729 7.25621 7.10747 6.92736 
6.71309 6.46369 6.18082 5.86933 5.53728 5.19507 4.85381 4.52312 4.20962 
3.91666 3.64519 3.39473 3.1641 2.95188 2.75659 2.57678 2.41111 2.25835 
2.11735 1.98709 1.86663 1.75512 1.65179 1.55596 1.46699 1.38431 1.3074 
1.23579 1.16906 1.10682 1.04871 0.994414 0.943637 0.896111 0.85159 0.80985 
0.770686 0.733911 0.699352 0.66685 0.636261 0.60745 0.580296 0.554683 0.530509 
0.507677 0.486098 0.465689 0.446376 0.428087 0.410758 0.394328 0.378741 0.363946 
0.349895 0.336542 0.323846 0.311768 0.300273 0.289326 0.278897 0.268955 0.259475 
0.25043 0.241796 0.233552 0.225676 0.21815 0.210954 0.204072 0.197488 0.191186 
0.185153 0.179376 0.173842 0.168539 0.163456 0.158584 0.153912 0.149431 0.145133 
0.14101 0.137054 0.133257 0.129614 0.126117 0.122761 0.11954 0.116448 0.11348 
0.110632 0.107899 0.105276 0.102759 0.100343 0.0980262 0.0958033 0.0936709 0.0916254 
0.0896632 0.087781 0.0859751 0.0842422 0.0825787 0.080981 0.0794455 0.0779685 0.0765459 
0.0751738 0.0738478 0.0725634 0.0713158 0.0700997 0.0689097 0.0677396 0.066583 0.0654327 
0.0642809 0.0631191 0.0619375 0.0607256 0.0594712 0.0581606 0.0567781 0.0553054 0.0537206 
0.0519978 0.0501051 0.0480025 0.045638 0.0429426 0.0398189 0.0361214 0.0316102 0.0258251 
0.0175833 11.6385 4.2037 2.51871 1.85128 1.53506 1.37043 1.27985 1.22863 
1.19974 1.1842 1.17705 1.17543 1.17762 1.18257 1.18962 1.19836 1.20851 
1.21993 1.2325 1.24619 1.26098 1.27686 1.29386 1.31203 1.33141 1.35206 
1.37407 1.3975 1.42244 1.44901 1.4773 1.50743 1.53954 1.57375 1.61022 
1.64912 1.6906 1.73488 1.78214 1.83261 1.88652 1.94413 2.00572 2.07159 
2.14205 2.21745 2.29818 2.38463 2.47724 2.57647 2.68285 2.7969 2.91922 
3.05043 3.1912 3.34224 3.50429 3.67815 3.8646 4.06444 4.27842 4.50719 
4.7512 5.01054 5.28471 5.57224 5.87023 6.17389 6.47638 6.77065 7.10456 
7.34625 7.50018 7.59527 7.64458 7.65827 7.64411 7.60731 7.55061 7.47444 
7.37729 7.25621 7.10747 6.92736 6.71309 6.46369 6.18082 5.86933 5.53728 
5.19507 4.85381 4.52312 4.20962 3.91666 3.64519 3.39473 3.1641 2.95188 
2.75659 2.57678 2.41111 2.25835 2.11735 1.98709 1.86663 1.75512 1.65179 
1.55596 1.46699 1.38431 1.3074 1.23579 1.16906 1.10682 1.04871 0.994414 
0.943637 0.896111 0.85159 0.80985 0.770686 0.733911 0.699352 0.66685 0.636261 
0.60745 0.580296 0.554683 0.530509 0.507677 0.486098 0.465689 0.446376 0.428087 
0.410758 0.394328 0.378741 0.363946 0.349895 0.336542 0.323846 0.311768 0.300273 
0.289326 0.278897 0.268955 0.259475 0.25043 0.241796 0.233552 0.225676 0.21815 
0.210954 0.204072 0.197488 0.191186 0.185153 0.179376 0.173842 0.168539 0.163456 
0.158584 0.153912 0.149431 0.145133 0.14101 0.137054 0.133257 0.129614 0.126117 
0.122761 0.11954 0.116448 0.11348 0.110632 0.107899 0.105276 0.102759 0.100343 
0.0980262 0.0958033 0.0936709 0.0916254 0.0896632 0.087781 0.0859751 0.0842422 0.0825787 
0.080981 0.0794455 0.0779685 0.0765459 0.0751738 0.0738478 0.0725634 0.0713158 0.0700997 
0.0689097 0.0677396 0.066583 0.0654327 0.0642809 0.0631191 0.0619375 0.0607256 0.0594712 
0.0581606 0.0567781 0.0553054 0.0537206 0.0519978 0.0501051 0.0480025 0.045638 0.0429426 
0.0398189 0.0361214 0.0316102 0.0258251 0.0175833 
METADATA
INFORMATION 0

FIELD FieldData 5
gid 1 1580 float
0 1 2 3 4 5 6 7 8 
9 10 11 12 13 14 15 16 17 
18 19 20 21 22 23 24 25 26 
27 28 29 30 31 32 33 34 35 
36 37 38 39 40 41 42 43 44 
45 46 47 48 49 50 51 52 53 
54 55 56 57 58 59 60 61 62 
63 64 65 66 67 68 69 70 71 
72 73 74 75 76 77 78 79 80 
81 82 83 84 85 86 87 88 89 
90 91 92 93 94 95 96 97 98 
99 100 101 102 103 104 105 106 107 
108 109 110 111 112 113 114 115 116 
117 118 119 120 121 122 123 124 125 
126 127 128 129 130 131 132 133 134 
135 136 137 138 139 140 141 142 143 
144 145 146 147 148 149 150 151 152 
153 154 155 156 157 158 159 160 161 
162 163 164 165 166 167 168 169 170 
171 172 173 174 175 176 177 178 179 
180 181 182 183 184 185 186 187 188 
189 190 191 192 193 194 195 196 197 
198 199 200 201 202 203 204 205 206 
207 208 209 210 211 212 213 214 215 
216 217 218 219 220 221 222 223 224 
225 226 227 228 229 230 231 232 233 
234 235 236 237 238 239 240 241 242 
243 244 245 246 247 248 249 250 251 
252 253 254 255 256 257 258 259 260 
261 262 263 264 265 266 267 268 269 
270 271 272 273 274 275 276 277 278 
279 280 281 282 283 284 285 286 287 
288 289 290 291 292 293 294 295 296 
297 298 299 300 301 302 303 304 305 
306 307 308 309 310 311 312 313 314 
315 316 317 318 319 320 321 322 323 
324 325 326 327 328 329 330 331 332 
333 334 335 336 337 338 339 340 341 
342 343 344 345 346 347 348 349 350 
351 352 353 354 355 356 357 358 359 
360 361 362 363 364 365 366 367 368 
369 370 371 372 373 374 375 376 377 
378 379 380 381 382 383 384 385 386 
387 388 389 390 391 392 393 394 395 
396 397 398 399 400 401 402 403 404 
405 406 407 408 409 410 411 412 413 
414 415 416 417 418 419 420 421 422 
423 424 425 426 427 428 429 430 431 
432 433 434 435 436 437 438 439 440 
441 442 443 444 445 446 447 448 449 
450 451 452 453 454 455 456 457 458 
459 460 461 462 463 464 465 466 467 
468 469 470 471 472 473 474 475 476 
477 478 479 480 481 482 483 484 485 
486 487 488 489 490 491 492 493 494 
495 496 497 498 499 500 501 502 503 
504 505 506 507 508 509 510 511 512 
513 514 515 516 517 518 519 520 521 
522 523 524 525 526 527 528 529 530 
531 532 533 534 535 536 537 538 539 
540 541 542 543 544 545 546 547 548 
549 550 551 552 553 554 555 556 557 
558 559 560 561 562 563 564 565 566 
567 568 569 570 571 572 573 574 575 
576 577 578 579 580 581 582 583 584 
585 586 587 588 589 590 591 592 593 
594 595 596 597 598 599 600 601 602 
603 604 605 606 607 608 609 610 611 
612 613 614 615 616 617 618 619 620 
621 622 623 624 625 626 627 628 629 
630 631 632 633 634 635 636 637 638 
639 640 641 642 643 644 645 646 647 
648 649 650 651 652 653 654 655 656 
657 658 659 660 661 662 663 664 665 
666 667 668 669 670 671 672 673 674 
675 676 677 678 679 680 681 682 683 
684 685 686 687 688 689 690 691 692 
693 694 695 696 697 698 699 700 701 
702 703 704 705 706 707 708 709 710 
711 712 713 714 715 716 717 718 719 
720 721 722 723 724 725 726 727 728 
729 730 731 732 733 734 735 736 737 
738 739 740 741 742 743 744 745 746 
747 748 749 750 751 752 753 754 755 
756 757 758 759 760 761 762 763 764 
765 766 767 768 769 770 771 772 773 
774 775 776 777 778 779 780 781 782 
783 784 785 786 787 788 789 790 791 
792 793 794 795 796 797 798 799 800 
801 802 803 804 805 806 807 808 809 
810 811 812 813 814 815 816 817 818 
819 820 821 822 823 824 825 826 827 
828 829 830 831 832 833 834 835 836 
837 838 839 840 841 842 843 844 845 
846 847 848 849 850 851 852 853 854 
855 856 857 858 859 860 861 862 863 
864 865 866 867 868 869 870 871 872 
873 874 875 876 877 878 879 880 881 
882 883 884 885 886 887 888 889 890 
891 892 893 894 895 896 897 898 899 
900 901 902 903 904 905 906 907 908 
909 910 911 912 913 914 915 916 917 
918 919 920 921 922 923 924 925 926 
927 928 929 930 931 932 933 934 935 
936 937 938 939 940 941 942 943 944 
945 946 947 948 949 950 951 952 953 
954 955 956 957 958 959 960 961 962 
963 964 965 966 967 968 969 970 971 
972 973 974 975 976 977 978 979 980 
981 982 983 984 985 986 987 988 989 
990 991 992 993 994 995 996 997 998 
999 1000 1001 1002 1003 1004 1005 1006 1007 
1008 1009 1010 1011 1012 1013 1014 1015 1016 
1017 1018 1019 1020 1021 1022 1023 1024 1025 
1026 1027 1028 1029 1030 1031 1032 1033 1034 
1035 1036 1037 1038 1039 1040 1041 1042 1043 
1044 1045 1046 1047 1048 1049 1050 1051 1052 
1053 1054 1055 1056 1057 1058 1059 1060 1061 
1062 1063 1064 1065 1066 1067 1068 1069 1070 
1071 1072 1073 1074 1075 1076 1077 1078 1079 
1080 1081 1082 1083 1084 1085 1086 1087 1088 
1089 1090 1091 1092 1093 1094 1095 1096 1097 
1098 1099 1100 1101 1102 1103 1104 1105 1106 
1107 1108 1109 1110 1111 1112 1113 1114 1115 
1116 1117 1118 1119 1120 1121 1122 1123 1124 
1125 1126 1127 1128 1129 1130 1131 1132 1133 
1134 1135 1136 1137 1138 1139 1140 1141 1142 