# vtk DataFile Version 5.1
vtk output
ASCII
DATASET POLYDATA
POINTS 6320 float
0 -5 0 0 -4.55 0 0.05 -4.55 0.00782172 
0.05 -5 0.00782172 0.05 -5 0.00782172 0.05 -4.55 0.00782172 
0.1 -4.55 0.0154509 0.1 -5 0.0154509 0.1 -5 0.0154509 
0.1 -4.55 0.0154509 0.15 -4.55 0.0226995 0.15 -5 0.0226995 
0.15 -5 0.0226995 0.15 -4.55 0.0226995 0.2 -4.55 0.0293893 
0.2 -5 0.0293893 0.2 -5 0.0293893 0.2 -4.55 0.0293893 
0.25 -4.55 0.0353553 0.25 -5 0.0353553 0.25 -5 0.0353553 
0.25 -4.55 0.0353553 0.3 -4.55 0.0404508 0.3 -5 0.0404508 
0.3 -5 0.0404508 0.3 -4.55 0.0404508 0.35 -4.55 0.0445503 
0.35 -5 0.0445503 0.35 -5 0.0445503 0.35 -4.55 0.0445503 
0.4 -4.55 0.0475528 0.4 -5 0.0475528 0.4 -5 0.0475528 
0.4 -4.55 0.0475528 0.45 -4.55 0.0493844 0.45 -5 0.0493844 
0.45 -5 0.0493844 0.45 -4.55 0.0493844 0.5 -4.55 0.05 
0.5 -5 0.05 0.5 -5 0.05 0.5 -4.55 0.05 
0.55 -4.55 0.0493844 0.55 -5 0.0493844 0.55 -5 0.0493844 
0.55 -4.55 0.0493844 0.6 -4.55 0.0475528 0.6 -5 0.0475528 
0.6 -5 0.0475528 0.6 -4.55 0.0475528 0.65 -4.55 0.0445503 
0.65 -5 0.0445503 0.65 -5 0.0445503 0.65 -4.55 0.0445503 
0.7 -4.55 0.0404508 0.7 -5 0.0404508 0.7 -5 0.0404508 
0.7 -4.55 0.0404508 0.75 -4.55 0.0353553 0.75 -5 0.0353553 
0.75 -5 0.0353553 0.75 -4.55 0.0353553 0.8 -4.55 0.0293893 
0.8 -5 0.0293893 0.8 -5 0.0293893 0.8 -4.55 0.0293893 
0.85 -4.55 0.0226995 0.85 -5 0.0226995 0.85 -5 0.0226995 
0.85 -4.55 0.0226995 0.9 -4.55 0.0154509 0.9 -5 0.0154509 
0.9 -5 0.0154509 0.9 -4.55 0.0154509 0.95 -4.55 0.00782172 
0.95 -5 0.00782172 0.95 -5 0.00782172 0.95 -4.55 0.00782172 
1 -4.55 6.12323e-18 1 -5 6.12323e-18 0 -4.55 0 
0 -4.1 0 0.05 -4.1 0.00782172 0.05 -4.55 0.00782172 
0.05 -4.55 0.00782172 0.05 -4.1 0.00782172 0.1 -4.1 0.0154509 
0.1 -4.55 0.0154509 0.1 -4.55 0.0154509 0.1 -4.1 0.0154509 
0.15 -4.1 0.0226995 0.15 -4.55 0.0226995 0.15 -4.55 0.0226995 
0.15 -4.1 0.0226995 0.2 -4.1 0.0293893 0.2 -4.55 0.0293893 
0.2 -4.55 0.0293893 0.2 -4.1 0.0293893 0.25 -4.1 0.0353553 
0.25 -4.55 0.0353553 0.25 -4.55 0.0353553 0.25 -4.1 0.0353553 
0.3 -4.1 0.0404508 0.3 -4.55 0.0404508 0.3 -4.55 0.0404508 
0.3 -4.1 0.0404508 0.35 -4.1 0.0445503 0.35 -4.55 0.0445503 
0.35 -4.55 0.0445503 0.35 -4.1 0.0445503 0.4 -4.1 0.0475528 
0.4 -4.55 0.0475528 0.4 -4.55 0.0475528 0.4 -4.1 0.0475528 
0.45 -4.1 0.0493844 0.45 -4.55 0.0493844 0.45 -4.55 0.0493844 
0.45 -4.1 0.0493844 0.5 -4.1 0.05 0.5 -4.55 0.05 
0.5 -4.55 0.05 0.5 -4.1 0.05 0.55 -4.1 0.0493844 
0.55 -4.55 0.0493844 0.55 -4.55 0.0493844 0.55 -4.1 0.0493844 
0.6 -4.1 0.0475528 0.6 -4.55 0.0475528 0.6 -4.55 0.0475528 
0.6 -4.1 0.0475528 0.65 -4.1 0.0445503 0.65 -4.55 0.0445503 
0.65 -4.55 0.0445503 0.65 -4.1 0.0445503 0.7 -4.1 0.0404508 
0.7 -4.55 0.0404508 0.7 -4.55 0.0404508 0.7 -4.1 0.0404508 
0.75 -4.1 0.0353553 0.75 -4.55 0.0353553 0.75 -4.55 0.0353553 
0.75 -4.1 0.0353553 0.8 -4.1 0.0293893 0.8 -4.55 0.0293893 
0.8 -4.55 0.0293893 0.8 -4.1 0.0293893 0.85 -4.1 0.0226995 
0.85 -4.55 0.0226995 0.85 -4.55 0.0226995 0.85 -4.1 0.0226995 
0.9 -4.1 0.0154509 0.9 -4.55 0.0154509 0.9 -4.55 0.0154509 
0.9 -4.1 0.0154509 0.95 -4.1 0.00782172 0.95 -4.55 0.00782172 
0.95 -4.55 0.00782172 0.95 -4.1 0.00782172 1 -4.1 6.12323e-18 
1 -4.55 6.12323e-18 0 -4.1 0 0 -3.65 0 
0.05 -3.65 0.00782172 0.05 -4.1 0.00782172 0.05 -4.1 0.00782172 
0.05 -3.65 0.00782172 0.1 -3.65 0.0154509 0.1 -4.1 0.0154509 
0.1 -4.1 0.0154509 0.1 -3.65 0.0154509 0.15 -3.65 0.0226995 
0.15 -4.1 0.0226995 0.15 -4.1 0.0226995 0.15 -3.65 0.0226995 
0.2 -3.65 0.0293893 0.2 -4.1 0.0293893 0.2 -4.1 0.0293893 
0.2 -3.65 0.0293893 0.25 -3.65 0.0353553 0.25 -4.1 0.0353553 
0.25 -4.1 0.0353553 0.25 -3.65 0.0353553 0.3 -3.65 0.0404508 
0.3 -4.1 0.0404508 0.3 -4.1 0.0404508 0.3 -3.65 0.0404508 
0.35 -3.65 0.0445503 0.35 -4.1 0.0445503 0.35 -4.1 0.0445503 
0.35 -3.65 0.0445503 0.4 -3.65 0.0475528 0.4 -4.1 0.0475528 
0.4 -4.1 0.0475528 0.4 -3.65 0.0475528 0.45 -3.65 0.0493844 
0.45 -4.1 0.0493844 0.45 -4.1 0.0493844 0.45 -3.65 0.0493844 
0.5 -3.65 0.05 0.5 -4.1 0.05 0.5 -4.1 0.05 
0.5 -3.65 0.05 0.55 -3.65 0.0493844 0.55 -4.1 0.0493844 
0.55 -4.1 0.0493844 0.55 -3.65 0.0493844 0.6 -3.65 0.0475528 
0.6 -4.1 0.0475528 0.6 -4.1 0.0475528 0.6 -3.65 0.0475528 
0.65 -3.65 0.0445503 0.65 -4.1 0.0445503 0.65 -4.1 0.0445503 
0.65 -3.65 0.0445503 0.7 -3.65 0.0404508 0.7 -4.1 0.0404508 
0.7 -4.1 0.0404508 0.7 -3.65 0.0404508 0.75 -3.65 0.0353553 
0.75 -4.1 0.0353553 0.75 -4.1 0.0353553 0.75 -3.65 0.0353553 
0.8 -3.65 0.0293893 0.8 -4.1 0.0293893 0.8 -4.1 0.0293893 
0.8 -3.65 0.0293893 0.85 -3.65 0.0226995 0.85 -4.1 0.0226995 
0.85 -4.1 0.0226995 0.85 -3.65 0.0226995 0.9 -3.65 0.0154509 
0.9 -4.1 0.0154509 0.9 -4.1 0.0154509 0.9 -3.65 0.0154509 
0.95 -3.65 0.00782172 0.95 -4.1 0.00782172 0.95 -4.1 0.00782172 
0.95 -3.65 0.00782172 1 -3.65 6.12323e-18 1 -4.1 6.12323e-18 
0 -3.65 0 0 -3.2 0 0.05 -3.2 0.00782172 
0.05 -3.65 0.00782172 0.05 -3.65 0.00782172 0.05 -3.2 0.00782172 
0.1 -3.2 0.0154509 0.1 -3.65 0.0154509 0.1 -3.65 0.0154509 
0.1 -3.2 0.0154509 0.15 -3.2 0.0226995 0.15 -3.65 0.0226995 
0.15 -3.65 0.0226995 0.15 -3.2 0.0226995 0.2 -3.2 0.0293893 
0.2 -3.65 0.0293893 0.2 -3.65 0.0293893 0.2 -3.2 0.0293893 
0.25 -3.2 0.0353553 0.25 -3.65 0.0353553 0.25 -3.65 0.0353553 
0.25 -3.2 0.0353553 0.3 -3.2 0.0404508 0.3 -3.65 0.0404508 
0.3 -3.65 0.0404508 0.3 -3.2 0.0404508 0.35 -3.2 0.0445503 
0.35 -3.65 0.0445503 0.35 -3.65 0.0445503 0.35 -3.2 0.0445503 
0.4 -3.2 0.0475528 0.4 -3.65 0.0475528 0.4 -3.65 0.0475528 
0.4 -3.2 0.0475528 0.45 -3.2 0.0493844 0.45 -3.65 0.0493844 
0.45 -3.65 0.0493844 0.45 -3.2 0.0493844 0.5 -3.2 0.05 
0.5 -3.65 0.05 0.5 -3.65 0.05 0.5 -3.2 0.05 
0.55 -3.2 0.0493844 0.55 -3.65 0.0493844 0.55 -3.65 0.0493844 
0.55 -3.2 0.0493844 0.6 -3.2 0.0475528 0.6 -3.65 0.0475528 
0.6 -3.65 0.0475528 0.6 -3.2 0.0475528 0.65 -3.2 0.0445503 
0.65 -3.65 0.0445503 0.65 -3.65 0.0445503 0.65 -3.2 0.0445503 
0.7 -3.2 0.0404508 0.7 -3.65 0.0404508 0.7 -3.65 0.0404508 
0.7 -3.2 0.0404508 0.75 -3.2 0.0353553 0.75 -3.65 0.0353553 
0.75 -3.65 0.0353553 0.75 -3.2 0.0353553 0.8 -3.2 0.0293893 
0.8 -3.65 0.0293893 0.8 -3.65 0.0293893 0.8 -3.2 0.0293893 
0.85 -3.2 0.0226995 0.85 -3.65 0.0226995 0.85 -3.65 0.0226995 
0.85 -3.2 0.0226995 0.9 -3.2 0.0154509 0.9 -3.65 0.0154509 
0.9 -3.65 0.0154509 0.9 -3.2 0.0154509 0.95 -3.2 0.00782172 
0.95 -3.65 0.00782172 0.95 -3.65 0.00782172 0.95 -3.2 0.00782172 
1 -3.2 6.12323e-18 1 -3.65 6.12323e-18 0 -3.2 0 
0 -2.75 0 0.05 -2.75 0.00782172 0.05 -3.2 0.00782172 
0.05 -3.2 0.00782172 0.05 -2.75 0.00782172 0.1 -2.75 0.0154509 
0.1 -3.2 0.0154509 0.1 -3.2 0.0154509 0.1 -2.75 0.0154509 
0.15 -2.75 0.0226995 0.15 -3.2 0.0226995 0.15 -3.2 0.0226995 
0.15 -2.75 0.0226995 0.2 -2.75 0.0293893 0.2 -3.2 0.0293893 
0.2 -3.2 0.0293893 0.2 -2.75 0.0293893 0.25 -2.75 0.0353553 
0.25 -3.2 0.0353553 0.25 -3.2 0.0353553 0.25 -2.75 0.0353553 
0.3 -2.75 0.0404508 0.3 -3.2 0.0404508 0.3 -3.2 0.0404508 
0.3 -2.75 0.0404508 0.35 -2.75 0.0445503 0.35 -3.2 0.0445503 
0.35 -3.2 0.0445503 0.35 -2.75 0.0445503 0.4 -2.75 0.0475528 
0.4 -3.2 0.0475528 0.4 -3.2 0.0475528 0.4 -2.75 0.0475528 
0.45 -2.75 0.0493844 0.45 -3.2 0.0493844 0.45 -3.2 0.0493844 
0.45 -2.75 0.0493844 0.5 -2.75 0.05 0.5 -3.2 0.05 
0.5 -3.2 0.05 0.5 -2.75 0.05 0.55 -2.75 0.0493844 
0.55 -3.2 0.0493844 0.55 -3.2 0.0493844 0.55 -2.75 0.0493844 
0.6 -2.75 0.0475528 0.6 -3.2 0.0475528 0.6 -3.2 0.0475528 
0.6 -2.75 0.0475528 0.65 -2.75 0.0445503 0.65 -3.2 0.0445503 
0.65 -3.2 0.0445503 0.65 -2.75 0.0445503 0.7 -2.75 0.0404508 
0.7 -3.2 0.0404508 0.7 -3.2 0.0404508 0.7 -2.75 0.0404508 
0.75 -2.75 0.0353553 0.75 -3.2 0.0353553 0.75 -3.2 0.0353553 
0.75 -2.75 0.0353553 0.8 -2.75 0.0293893 0.8 -3.2 0.0293893 
0.8 -3.2 0.0293893 0.8 -2.75 0.0293893 0.85 -2.75 0.0226995 
0.85 -3.2 0.0226995 0.85 -3.2 0.0226995 0.85 -2.75 0.0226995 
0.9 -2.75 0.0154509 0.9 -3.2 0.0154509 0.9 -3.2 0.0154509 
0.9 -2.75 0.0154509 0.95 -2.75 0.00782172 0.95 -3.2 0.00782172 
0.95 -3.2 0.00782172 0.95 -2.75 0.00782172 1 -2.75 6.12323e-18 
1 -3.2 6.12323e-18 0 -2.75 0 0 -2.3 0 
0.05 -2.3 0.00782172 0.05 -2.75 0.00782172 0.05 -2.75 0.00782172 
0.05 -2.3 0.00782172 0.1 -2.3 0.0154509 0.1 -2.75 0.0154509 
0.1 -2.75 0.0154509 0.1 -2.3 0.0154509 0.15 -2.3 0.0226995 
0.15 -2.75 0.0226995 0.15 -2.75 0.0226995 0.15 -2.3 0.0226995 
0.2 -2.3 0.0293893 0.2 -2.75 0.0293893 0.2 -2.75 0.0293893 
0.2 -2.3 0.0293893 0.25 -2.3 0.0353553 0.25 -2.75 0.0353553 
0.25 -2.75 0.0353553 0.25 -2.3 0.0353553 0.3 -2.3 0.0404508 
0.3 -2.75 0.0404508 0.3 -2.75 0.0404508 0.3 -2.3 0.0404508 
0.35 -2.3 0.0445503 0.35 -2.75 0.0445503 0.35 -2.75 0.0445503 
0.35 -2.3 0.0445503 0.4 -2.3 0.0475528 0.4 -2.75 0.0475528 
0.4 -2.75 0.0475528 0.4 -2.3 0.0475528 0.45 -2.3 0.0493844 
0.45 -2.75 0.0493844 0.45 -2.75 0.0493844 0.45 -2.3 0.0493844 
0.5 -2.3 0.05 0.5 -2.75 0.05 0.5 -2.75 0.05 
0.5 -2.3 0.05 0.55 -2.3 0.0493844 0.55 -2.75 0.0493844 
0.55 -2.75 0.0493844 0.55 -2.3 0.0493844 0.6 -2.3 0.0475528 
0.6 -2.75 0.0475528 0.6 -2.75 0.0475528 0.6 -2.3 0.0475528 
0.65 -2.3 0.0445503 0.65 -2.75 0.0445503 0.65 -2.75 0.0445503 
0.65 -2.3 0.0445503 0.7 -2.3 0.0404508 0.7 -2.75 0.0404508 
0.7 -2.75 0.0404508 0.7 -2.3 0.0404508 0.75 -2.3 0.0353553 
0.75 -2.75 0.0353553 0.75 -2.75 0.0353553 0.75 -2.3 0.0353553 
0.8 -2.3 0.0293893 0.8 -2.75 0.0293893 0.8 -2.75 0.0293893 
0.8 -2.3 0.0293893 0.85 -2.3 0.0226995 0.85 -2.75 0.0226995 
0.85 -2.75 0.0226995 0.85 -2.3 0.0226995 0.9 -2.3 0.0154509 
0.9 -2.75 0.0154509 0.9 -2.75 0.0154509 0.9 -2.3 0.0154509 
0.95 -2.3 0.00782172 0.95 -2.75 0.00782172 0.95 -2.75 0.00782172 
0.95 -2.3 0.00782172 1 -2.3 6.12323e-18 1 -2.75 6.12323e-18 
0 -2.3 0 0 -1.85 0 0.05 -1.85 0.00782172 
0.05 -2.3 0.00782172 0.05 -2.3 0.00782172 0.05 -1.85 0.00782172 
0.1 -1.85 0.0154509 0.1 -2.3 0.0154509 0.1 -2.3 0.0154509 
0.1 -1.85 0.0154509 0.15 -1.85 0.0226995 0.15 -2.3 0.0226995 
0.15 -2.3 0.0226995 0.15 -1.85 0.0226995 0.2 -1.85 0.0293893 
0.2 -2.3 0.0293893 0.2 -2.3 0.0293893 0.2 -1.85 0.0293893 
0.25 -1.85 0.0353553 0.25 -2.3 0.0353553 0.25 -2.3 0.0353553 
[...]
CELL_DATA 1580
SCALARS CP float
LOOKUP_TABLE default
28.0642 15.875 13.6787 13.1233 13.1296 13.3447 13.5998 13.7958 13.8685 
13.7762 13.4943 13.0124 12.3319 11.4632 10.423 9.23012 7.90179 6.44614 
4.846 2.99314 40.6136 22.6662 19.1599 18.0052 17.6607 17.6356 17.7031 
17.7345 17.6488 17.3934 16.937 16.2648 15.3756 14.2783 12.9882 11.5229 
9.89711 8.1132 6.13999 3.82618 48.137 26.5983 22.2308 20.6578 20.054 
19.8439 19.7655 19.6725 19.4738 19.1109 18.5486 17.7696 16.771 15.5603 
14.1518 12.5619 10.803 8.87393 6.73552 4.21426 53.0633 29.1292 24.1755 
22.312 21.5253 21.1836 21.0015 20.821 20.5443 20.1091 19.4776 18.6309 
17.5649 16.2862 14.8083 13.1467 11.3124 9.30186 7.07114 4.4337 56.5189 
30.8851 25.5106 23.4365 22.5163 22.0782 21.8202 21.576 21.2431 20.7566 
20.0767 19.1834 18.0717 16.7477 15.2244 13.5163 11.6338 9.57164 7.2827 
4.57211 59.1211 32.1949 26.4973 24.2601 23.2358 22.7222 22.4048 22.1109 
21.7347 21.2088 20.4924 19.5645 18.4193 17.0627 15.507 13.7665 11.8507 
9.75315 7.42477 4.66494 61.29 33.2717 27.2972 24.9183 23.8023 23.2218 
22.8515 22.5135 22.0991 21.5392 20.7917 19.8351 18.6631 17.2809 15.7007 
13.9362 11.9965 9.87434 7.51904 4.72623 63.4809 34.3262 28.054 25.5174 
24.2966 23.6377 23.205 22.8154 22.3572 21.7597 20.9799 19.9952 18.799 
17.3958 15.7974 14.017 12.0631 9.9278 7.55955 4.75211 66.8015 35.8012 
29.0076 26.1757 24.7488 23.9336 23.3784 22.8925 22.3598 21.7064 20.8868 
19.8763 18.6658 17.2583 15.6634 13.8926 11.9531 9.83602 7.48927 4.70792 
78.2494 39.6696 30.5427 26.4025 24.1408 22.7848 21.8975 21.2375 20.6535 
20.0442 19.3404 18.4962 17.4837 16.288 14.9035 13.3292 11.5629 9.59011 
7.35667 4.65757 78.2494 39.6696 30.5427 26.4025 24.1408 22.7848 21.8975 
21.2375 20.6535 20.0442 19.3404 18.4962 17.4837 16.288 14.9035 13.3292 
11.5629 9.59011 7.35667 4.65757 66.8015 35.8012 29.0076 26.1757 24.7488 
23.9336 23.3784 22.8925 22.3598 21.7064 20.8868 19.8763 18.6658 17.2583 
15.6634 13.8926 11.9531 9.83602 7.48927 4.70792 63.4809 34.3262 28.054 
25.5174 24.2966 23.6377 23.205 22.8154 22.3572 21.7597 20.9799 19.9952 
18.799 17.3958 15.7974 14.017 12.0631 9.9278 7.55955 4.75211 61.29 
33.2717 27.2972 24.9183 23.8023 23.2218 22.8515 22.5135 22.0991 21.5392 
20.7917 19.8351 18.6631 17.2809 15.7007 13.9362 11.9965 9.87434 7.51904 
4.72623 59.1211 32.1949 26.4973 24.2601 23.2358 22.7222 22.4048 22.1109 
21.7347 21.2088 20.4924 19.5645 18.4193 17.0627 15.507 13.7665 11.8507 
9.75315 7.42477 4.66494 56.5189 30.8851 25.5106 23.4365 22.5163 22.0782 
21.8202 21.576 21.2431 20.7566 20.0767 19.1834 18.0717 16.7477 15.2244 
13.5163 11.6338 9.57164 7.2827 4.57211 53.0633 29.1292 24.1755 22.312 
21.5253 21.1836 21.0015 20.821 20.5443 20.1091 19.4776 18.6309 17.5649 
16.2862 14.8083 13.1467 11.3124 9.30186 7.07114 4.4337 48.137 26.5983 
22.2308 20.6578 20.054 19.8439 19.7655 19.6725 19.4738 19.1109 18.5486 
17.7696 16.771 15.5603 14.1518 12.5619 10.803 8.87393 6.73552 4.21426 
40.6136 22.6662 19.1599 18.0052 17.6607 17.6356 17.7031 17.7345 17.6488 
17.3934 16.937 16.2648 15.3756 14.2783 12.9882 11.5229 9.89711 8.1132 
6.13999 3.82618 28.0642 15.875 13.6787 13.1233 13.1296 13.3447 13.5998 
13.7958 13.8685 13.7762 13.4943 13.0124 12.3319 11.4632 10.423 9.23012 
7.90179 6.44614 4.846 2.99314 11.5201 3.79231 1.29205 0.400943 2.01738 
4.05532 7.51187 18.8086 4.96356 3.26455 12.5026 4.21783 1.40736 0.5881 
2.49317 4.77259 8.36244 19.5958 5.39507 3.53659 12.5568 4.22147 1.37051 
0.666533 2.60806 4.91066 8.50206 19.705 5.43161 3.65305 12.5034 4.19135 
1.34145 0.698322 2.64252 4.94534 8.53236 19.7225 5.42519 3.71293 12.5008 
4.19374 1.34413 0.696834 2.64284 4.94754 8.53607 19.7269 5.42861 3.71278 
12.6155 4.25962 1.39688 0.653346 2.60862 4.92391 8.52542 19.735 5.46141 
3.62651 12.9265 4.43506 1.53824 0.534013 2.51103 4.85228 8.48764 19.7491 
5.54634 3.38804 13.5583 4.80947 1.86048 0.239275 2.24596 4.63261 8.34169 
19.7324 5.71788 2.81745 14.6173 5.51346 2.56215 0.526334 1.39863 3.73119 
7.49653 19.2458 5.9142 1.24093 15.746 6.39557 3.64395 2.05013 0.929281 
0.0984389 0.474312 0.75281 0.732894 0.511432 15.746 6.39557 3.64395 2.05013 
0.929281 0.0984389 0.474312 0.75281 0.732894 0.511432 14.6173 5.51346 2.56215 
0.526334 1.39863 3.73119 7.49653 19.2458 5.9142 1.24093 13.5583 4.80947 
1.86048 0.239275 2.24596 4.63261 8.34169 19.7324 5.71788 2.81745 12.9265 
4.43506 1.53824 0.534013 2.51103 4.85228 8.48764 19.7491 5.54634 3.38804 
12.6155 4.25962 1.39688 0.653346 2.60862 4.92391 8.52542 19.735 5.46141 
3.62651 12.5008 4.19374 1.34413 0.696834 2.64284 4.94754 8.53607 19.7269 
5.42861 3.71278 12.5034 4.19135 1.34145 0.698322 2.64252 4.94534 8.53236 
19.7225 5.42519 3.71293 12.5568 4.22147 1.37051 0.666533 2.60806 4.91066 
8.50206 19.705 5.43161 3.65305 12.5026 4.21783 1.40736 0.5881 2.49317 
4.77259 8.36244 19.5958 5.39507 3.53659 11.5201 3.79231 1.29205 0.400943 
2.01738 4.05532 7.51187 18.8086 4.96356 3.26455 1.58318e-15 1.46383e-16 8.67932e-16 
8.17886e-16 3.13951e-15 2.06746e-15 2.26912e-15 1.89007e-15 1.82667e-17 6.14548e-17 1.02245e-15 1.4022e-15 
4.79936e-16 6.88345e-16 1.46797e-16 7.61853e-16 1.05697e-17 3.64218e-16 2.77116e-16 4.13578e-16 2.63621e-16 
2.73736e-16 5.30126e-16 9.07549e-17 6.96907e-17 7.58502e-16 4.87219e-16 6.18336e-17 4.97428e-16 1.08857e-15 
1.25636e-15 4.41047e-16 3.56507e-16 5.23815e-16 2.70985e-16 9.70241e-17 1.01401e-15 2.27087e-16 2.34384e-16 
4.61583e-17 1.61256e-15 2.29072e-16 8.28251e-16 7.60188e-16 8.39012e-16 4.80481e-16 3.1208e-16 2.37936e-16 
1.93966e-16 1.44289e-16 1.46369e-15 7.16602e-16 5.99273e-16 9.34979e-16 1.9687e-16 1.30003e-15 7.86127e-17 
1.65562e-15 7.52706e-16 1.43046e-15 2.31271e-15 4.09621e-16 7.79664e-16 1.27629e-15 2.63624e-16 3.92707e-16 
1.30997e-17 1.64326e-15 6.99981e-16 1.93304e-15 1.45145e-15 1.65223e-15 1.66338e-15 6.09553e-16 7.53239e-16 
3.25575e-16 1.02955e-15 1.73568e-16 2.49196e-15 3.85992e-16 1.50198e-15 2.55298e-15 2.1775e-15 8.1037e-16 
4.36865e-15 6.78073e-16 2.11455e-16 3.07097e-15 1.47037e-15 5.17437e-15 7.44076e-16 6.47225e-16 2.07187e-15 
4.40707e-15 1.49508e-15 7.80495e-15 1.65095e-15 6.85181e-17 3.80631e-15 2.80526e-16 5.85519e-16 5.18789e-16 
2.72215e-16 4.4767e-16 2.66104e-16 1.79884e-15 6.87704e-16 1.09754e-16 3.47584e-16 2.52997e-15 3.43943e-16 
3.85385e-15 1.35963e-16 3.95241e-15 3.20974e-16 2.39662e-15 5.51403e-15 6.1046e-16 3.28623e-15 1.81259e-16 
1.10101e-15 2.20773e-15 4.70987e-15 7.57567e-16 4.41337e-15 3.34463e-15 6.0793e-15 4.49074e-15 8.35187e-15 
2.67587e-15 3.70746e-15 1.66026e-15 1.40528e-15 3.70208e-15 2.81061e-15 2.54061e-15 2.18573e-15 1.10968e-15 
2.61638e-15 3.29101e-15 9.08053e-15 1.88849e-15 1.72162e-15 5.06869e-15 5.0617e-15 3.55858e-15 2.36993e-15 
1.33455e-15 1.89683e-15 7.83956e-16 3.76974e-16 4.95496e-15 1.12281e-15 6.65982e-15 2.01872e-15 7.95369e-16 
1.45814e-14 9.6566e-15 3.02414e-15 1.75134e-15 9.3438e-15 8.01119e-15 1.78359e-15 3.70514e-15 1.98127e-15 
5.75451e-15 5.67836e-15 9.13009e-15 4.69709e-15 2.18663e-15 7.64907e-15 1.75041e-17 2.30229e-15 3.20804e-15 
6.62263e-15 1.80008e-14 5.16172e-15 3.92381e-15 1.82015e-14 4.16052e-15 2.28012e-16 8.81427e-15 1.21986e-14 
1.74405e-14 2.12947e-15 6.20192e-15 1.02625e-14 8.80016e-15 9.07135e-15 2.28822e-14 9.74129e-15 1.76752e-14 
2.71548e-14 2.65717e-14 1.74859e-14 6.17152e-16 2.91976e-14 1.70989e-14 4.79537e-15 1.49291e-14 1.24026e-15 
1.1753e-14 2.16543e-14 2.82904e-14 1.98773e-15 3.15148e-14 8.29244e-15 3.41948e-15 5.21325e-15 1.32026e-14 
2.34647e-14 1.54824e-14 8.33456e-15 2.03112e-14 4.8754e-15 4.72722e-14 6.07936e-15 9.92912e-15 5.46994e-15 
3.50431e-15 2.13653e-15 3.11735e-15 2.34135e-14 1.13506e-14 2.34129e-14 8.73158e-15 2.47239e-14 1.05837e-14 
6.82995e-15 2.17958e-14 1.65435e-14 7.70709e-15 4.1343e-14 2.84148e-14 3.27054e-15 1.09329e-14 1.40617e-14 
4.25737e-15 3.1719e-15 4.34443e-15 1.8902e-14 2.09425e-14 8.76772e-15 3.31228e-15 1.45462e-15 2.69461e-14 
1.55505e-14 9.33141e-15 2.21109e-14 2.15198e-14 1.16049e-14 2.31965e-14 1.16376e-14 1.07661e-14 1.69438e-14 
1.39415e-14 1.91087e-14 1.19076e-14 3.10746e-14 3.39975e-14 8.18812e-15 3.65603e-14 2.37345e-14 1.31053e-15 
4.7038e-14 2.60094e-14 5.98051e-15 4.38053e-14 4.02073e-15 4.54707e-14 9.4078e-15 1.23681e-15 1.29193e-14 
1.82707e-14 1.35056e-15 2.6296e-15 1.95797e-14 4.21891e-14 2.1627e-14 4.01013e-14 8.63001e-15 1.50675e-14 
9.70332e-15 2.19699e-14 8.90758e-15 1.90515e-15 9.40377e-15 3.84466e-14 1.06419e-14 3.18544e-14 7.82899e-15 
5.23985e-15 8.25442e-15 2.21391e-14 1.12144e-15 6.38141e-14 8.9523e-16 1.28509e-14 1.65828e-14 6.97877e-15 
7.454e-15 2.44792e-14 9.79042e-16 1.30845e-14 4.71857e-14 5.05371e-14 6.51346e-14 5.63349e-14 4.70187e-15 
9.40181e-16 2.33876e-14 4.30774e-14 1.40811e-14 1.40093e-14 8.64137e-15 7.15346e-15 8.45751e-15 5.07375e-14 
1.84688e-14 4.51728e-14 3.17231e-16 5.72208e-17 4.1036e-16 5.02579e-16 1.53493e-15 6.72937e-16 3.31821e-15 
2.77879e-17 2.10389e-15 1.63341e-16 2.39915e-15 1.38466e-15 1.78726e-16 1.91902e-15 4.8096e-16 1.10503e-15 
9.03589e-16 1.26037e-15 1.15243e-15 1.2999e-15 7.70746e-16 4.92152e-15 7.40572e-16 1.3893e-15 5.81623e-16 
3.58406e-15 2.98644e-15 2.36646e-15 5.33176e-16 1.75871e-16 4.38065e-16 5.06804e-16 1.83151e-15 7.26035e-18 
1.97319e-15 1.05993e-15 1.22568e-15 8.15727e-16 2.82243e-15 5.91867e-16 1.67645e-15 1.09736e-15 3.25786e-15 
4.15964e-16 4.80658e-17 2.95269e-15 6.60635e-16 8.13713e-16 6.78599e-15 4.87965e-15 1.34007e-15 2.71592e-15 
6.63159e-16 1.59e-15 5.60237e-15 8.19196e-15 4.14178e-15 2.70364e-15 3.98001e-16 8.02004e-15 1.22113e-15 
1.79339e-15 4.98913e-15 1.81094e-15 2.85595e-15 8.49482e-16 2.09018e-15 1.9411e-15 1.18115e-15 1.07852e-14 
4.80801e-15 5.94191e-15 3.53486e-15 2.52017e-15 1.09035e-14 5.40423e-15 2.49298e-15 1.11227e-14 9.84611e-15 
2.34454e-15 5.03287e-15 9.6775e-15 5.23046e-15 1.23549e-14 7.06487e-16 2.26856e-15 4.73064e-15 6.72277e-16 
1.17833e-15 2.78586e-15 9.24714e-15 5.51931e-15 9.89104e-15 3.81846e-15 1.04283e-15 2.42305e-14 7.69553e-15 
1.58854e-14 3.11357e-14 4.96591e-15 3.04054e-16 6.64612e-15 3.75132e-14 1.16461e-14 2.05536e-16 3.91784e-16 
1.80252e-14 3.68289e-14 1.13919e-14 1.52407e-14 2.26597e-14 3.51608e-15 1.6439e-14 3.41546e-14 6.42878e-15 
4.6143e-15 3.38662e-14 8.01409e-17 1.06486e-14 2.62854e-15 2.82813e-14 5.40863e-15 1.59001e-15 1.02439e-14 
1.01774e-14 5.31758e-17 4.46342e-15 2.25319e-14 1.7572e-14 2.44235e-14 8.3851e-15 1.01985e-14 1.52904e-14 
7.44848e-15 7.90837e-15 7.18656e-15 2.84368e-14 3.10884e-15 6.44089e-15 7.35935e-15 3.13677e-14 8.22432e-16 
2.36105e-14 3.64364e-15 4.2813e-15 2.90028e-16 3.3122e-14 1.67715e-14 2.36843e-14 3.10735e-15 1.09562e-14 
1.65835e-14 6.88463e-15 3.48631e-15 1.09934e-14 1.05966e-14 1.97294e-14 1.07108e-14 2.90226e-14 3.43111e-14 
1.60435e-14 3.95473e-14 1.76717e-14 2.28225e-14 5.68317e-15 3.74617e-14 1.41239e-14 4.10003e-14 2.65274e-15 
3.73516e-14 1.70645e-15 2.12914e-14 1.46812e-14 9.29553e-15 6.17846e-15 2.83238e-15 2.68399e-14 1.89986e-14 
2.07624e-15 2.00462e-14 3.76036e-14 1.05554e-14 3.41084e-14 7.84138e-15 7.80671e-15 1.02107e-14 3.94868e-14 
7.55404e-15 3.76401e-14 3.11413e-14 3.82528e-15 3.6163e-14 1.25122e-14 1.71098e-14 2.53441e-15 6.77676e-14 
2.48192e-15 5.33062e-14 2.88161e-14 2.45298e-14 1.85206e-14 5.49205e-14 4.13257e-14 1.5297e-14 5.5929e-14 
1.01185e-14 3.99246e-14 4.51647e-14 2.38276e-14 7.09054e-16 2.43056e-14 3.50721e-14 2.38007e-14 8.49989e-15 
1.9803e-14 6.71037e-15 4.06256e-14 2.50267e-14 3.36153e-15 2.08277e-14 15.889 5.73489 3.4328 
2.52033 2.08751 1.86166 1.7369 1.66586 1.62524 1.60282 1.59179 1.58825 
1.58984 1.59512 1.6032 1.6135 1.62565 1.63943 1.65469 1.67137 1.68943 
1.70888 1.72973 1.75204 1.77586 1.80127 1.82837 1.85724 1.888 1.92078 
1.9557 1.99293 2.03261 2.07492 2.12004 2.16819 2.21958 2.27445 2.33305 
2.39566 2.46258 2.53413 2.61066 2.69255 2.7802 2.87405 2.97457 3.08228 
3.19772 3.32149 3.45423 3.59663 3.74943 3.91342 4.08944 4.2784 4.48123 
4.69892 4.93246 5.18285 5.45102 5.73773 6.04347 6.36824 6.71118 7.0701 
7.44081 7.81639 8.18702 8.54225 8.9992 9.2747 9.43046 9.50577 9.51983 
9.48809 9.4226 9.33171 9.22015 9.08932 8.93787 8.76239 8.55836 8.32112 
8.04702 7.73455 7.38534 7.00482 6.60219 6.18951 5.77964 5.3837 5.00921 
4.6599 4.33664 4.03869 3.76452 3.51235 3.28037 3.06682 2.87009 2.68869 
2.52127 2.36658 2.22352 2.09108 1.96834 1.85449 1.74878 1.65052 1.55911 
1.47399 1.39465 1.32064 1.25153 1.18694 1.12653 1.06997 1.01698 0.967296 
0.920667 0.876873 0.83571 0.796991 0.760543 0.726207 0.693839 0.663303 0.634476 
0.607244 0.581501 0.55715 0.534099 0.512267 0.491576 0.471954 0.453334 0.435656 
0.418861 0.402897 0.387714 0.373266 0.35951 0.346405 0.333916 0.322006 0.310644 
0.299799 0.289442 0.279547 0.27009 0.261046 0.252395 0.244115 0.236188 0.228596 
0.221321 0.214348 0.207662 0.201249 0.195096 0.18919 0.18352 0.178075 0.172845 
0.167819 0.16299 0.158347 0.153883 0.14959 0.145462 0.141491 0.137671 0.133995 
0.130458 0.127055 0.12378 0.120629 0.117597 0.114679 0.11187 0.109168 0.106569 
0.104067 0.10166 0.0993437 0.0971148 0.0949696 0.0929046 0.090916 0.089 0.0871529 
0.0853705 0.0836485 0.0819825 0.0803675 0.0787984 0.0772694 0.0757745 0.0743067 0.0728586 
0.071422 0.0699876 0.0685452 0.0670829 0.0655878 0.0640446 0.062436 0.0607415 0.058937 
0.0569937 0.054876 0.0525393 0.0499264 0.0469604 0.043534 0.0394867 0.034555 0.0282335 
0.0192267 15.9924 5.77222 3.45514 2.53674 2.1011 1.87378 1.74821 1.6767 
1.63582 1.61325 1.60215 1.59859 1.60019 1.60551 1.61364 1.624 1.63623 
1.6501 1.66546 1.68225 1.70043 1.72 1.74099 1.76344 1.78742 1.813 
1.84027 1.86933 1.90029 1.93328 1.96843 2.0059 2.04584 2.08842 2.13384 
2.1823 2.23403 2.28925 2.34823 2.41125 2.47861 2.55063 2.62766 2.71008 
2.79829 2.89275 2.99393 3.10234 3.21853 3.34311 3.47672 3.62004 3.77384 
3.93889 4.11606 4.30625 4.5104 4.7295 4.96457 5.21659 5.4865 5.77508 
6.08281 6.4097 6.75487 7.11613 7.48924 7.86727 8.24031 8.59786 8.9992 
9.2747 9.43046 9.50577 9.51983 9.48809 9.4226 9.33171 9.22015 9.08932 
8.93787 8.76239 8.55836 8.32112 8.04702 7.73455 7.38534 7.00482 6.60219 
6.18951 5.77964 5.3837 5.00921 4.6599 4.33664 4.03869 3.76452 3.51235 
3.28037 3.06682 2.87009 2.68869 2.52127 2.36658 2.22352 2.09108 1.96834 
1.85449 1.74878 1.65052 1.55911 1.47399 1.39465 1.32064 1.25153 1.18694 
1.12653 1.06997 1.01698 0.967296 0.920667 0.876873 0.83571 0.796991 0.760543 
0.726207 0.693839 0.663303 0.634476 0.607244 0.581501 0.55715 0.534099 0.512267 
0.491576 0.471954 0.453334 0.435656 0.418861 0.402897 0.387714 0.373266 0.35951 
0.346405 0.333916 0.322006 0.310644 0.299799 0.289442 0.279547 0.27009 0.261046 
0.252395 0.244115 0.236188 0.228596 0.221321 0.214348 0.207662 0.201249 0.195096 
0.18919 0.18352 0.178075 0.172845 0.167819 0.16299 0.158347 0.153883 0.14959 
0.145462 0.141491 0.137671 0.133995 0.130458 0.127055 0.12378 0.120629 0.117597 
0.114679 0.11187 0.109168 0.106569 0.104067 0.10166 0.0993437 0.0971148 0.0949696 
0.0929046 0.090916 0.089 0.0871529 0.0853705 0.0836485 0.0819825 0.0803675 0.0787984 
0.0772694 0.0757745 0.0743067 0.0728586 0.071422 0.0699876 0.0685452 0.0670829 0.0655878 
0.0640446 0.062436 0.0607415 0.058937 0.0569937 0.054876 0.0525393 0.0499264 0.0469604 
0.043534 0.0394867 0.034555 0.0282335 0.0192267 
METADATA
INFORMATION 0

FIELD FieldData 5
gid 1 1580 float
0 1 2 3 4 5 6 7 8 
9 10 11 12 13 14 15 16 17 
18 19 20 21 22 23 24 25 26 
27 28 29 30 31 32 33 34 35 
36 37 38 39 40 41 42 43 44 
45 46 47 48 49 50 51 52 53 
54 55 56 57 58 59 60 61 62 
63 64 65 66 67 68 69 70 71 
72 73 74 75 76 77 78 79 80 
81 82 83 84 85 86 87 88 89 
90 91 92 93 94 95 96 97 98 
99 100 101 102 103 104 105 106 107 
108 109 110 111 112 113 114 115 116 
117 118 119 120 121 122 123 124 125 
126 127 128 129 130 131 132 133 134 
135 136 137 138 139 140 141 142 143 
144 145 146 147 148 149 150 151 152 
153 154 155 156 157 158 159 160 161 
162 163 164 165 166 167 168 169 170 
171 172 173 174 175 176 177 178 179 
180 181 182 183 184 185 186 187 188 
189 190 191 192 193 194 195 196 197 
198 199 200 201 202 203 204 205 206 
207 208 209 210 211 212 213 214 215 
216 217 218 219 220 221 222 223 224 
225 226 227 228 229 230 231 232 233 
234 235 236 237 238 239 240 241 242 
243 244 245 246 247 248 249 250 251 
252 253 254 255 256 257 258 259 260 
261 262 263 264 265 266 267 268 269 
270 271 272 273 274 275 276 277 278 
279 280 281 282 283 284 285 286 287 
288 289 290 291 292 293 294 295 296 
297 298 299 300 301 302 303 304 305 
306 307 308 309 310 311 312 313 314 
315 316 317 318 319 320 321 322 323 
324 325 326 327 328 329 330 331 332 
333 334 335 336 337 338 339 340 341 
342 343 344 345 346 347 348 349 350 
351 352 353 354 355 356 357 358 359 
360 361 362 363 364 365 366 367 368 
369 370 371 372 373 374 375 376 377 
378 379 380 381 382 383 384 385 386 
387 388 389 390 391 392 393 394 395 
396 397 398 399 400 401 402 403 404 
405 406 407 408 409 410 411 412 413 
414 415 416 417 418 419 420 421 422 
423 424 425 426 427 428 429 430 431 
432 433 434 435 436 437 438 439 440 
441 442 443 444 445 446 447 448 449 
450 451 452 453 454 455 456 457 458 
459 460 461 462 463 464 465 466 467 
468 469 470 471 472 473 474 475 476 
477 478 479 480 481 482 483 484 485 
486 487 488 489 490 491 492 493 494 
495 496 497 498 499 500 501 502 503 
504 505 506 507 508 509 510 511 512 
513 514 515 516 517 518 519 520 521 
522 523 524 525 526 527 528 529 530 
531 532 533 534 535 536 537 538 539 
540 541 542 543 544 545 546 547 548 
549 550 551 552 553 554 555 556 557 
558 559 560 561 562 563 564 565 566 
567 568 569 570 571 572 573 574 575 
576 577 578 579 580 581 582 583 584 
585 586 587 588 589 590 591 592 593 
594 595 596 597 598 599 600 601 602 
603 604 605 606 607 608 609 610 611 
612 613 614 615 616 617 618 619 620 
621 622 623 624 625 626 627 628 629 
630 631 632 633 634 635 636 637 638 
639 640 641 642 643 644 645 646 647 
648 649 650 651 652 653 654 655 656 
657 658 659 660 661 662 663 664 665 
666 667 668 669 670 671 672 673 674 
675 676 677 678 679 680 681 682 683 
684 685 686 687 688 689 690 691 692 
693 694 695 696 697 698 699 700 701 
702 703 704 705 706 707 708 709 710 
711 712 713 714 715 716 717 718 719 
720 721 722 723 724 725 726 727 728 
729 730 731 732 733 734 735 736 737 
738 739 740 741 742 743 744 745 746 
747 748 749 750 751 752 753 754 755 
756 757 758 759 760 761 762 763 764 
765 766 767 768 769 770 771 772 773 
774 775 776 777 778 779 780 781 782 
783 784 785 786 787 788 789 790 791 
792 793 794 795 796 797 798 799 800 
801 802 803 804 805 806 807 808 809 
810 811 812 813 814 815 816 817 818 
819 820 821 822 823 824 825 826 827 
828 829 830 831 832 833 834 835 836 
837 838 839 840 841 842 843 844 845 
846 847 848 849 850 851 852 853 854 
855 856 857 858 859 860 861 862 863 
864 865 866 867 868 869 870 871 872 
873 874 875 876 877 878 879 880 881 
882 883 884 885 886 887 888 889 890 
891 892 893 894 895 896 897 898 899 
900 901 902 903 904 905 906 907 908 
909 910 911 912 913 914 915 916 917 
918 919 920 921 922 923 924 925 926 
927 928 929 930 931 932 933 934 935 
936 937 938 939 940 941 942 943 944 
945 946 947 948 949 950 951 952 953 
954 955 956 957 958 959 960 961 962 
963 964 965 966 967 968 969 970 971 
972 973 974 975 976 977 978 979 980 
981 982 983 984 985 986 987 988 989 
990 991 992 993 994 995 996 997 998 
999 1000 1001 1002 1003 1004 1005 1006 1007 
1008 1009 1010 1011 1012 1013 1014 1015 1016 
1017 1018 1019 1020 1021 1022 1023 1024 1025 
1026 1027 1028 1029 1030 1031 1032 1033 1034 
1035 1036 1037 1038 1039 1040 1041 1042 1043 
1044 1045 1046 1047 1048 1049 1050 1051 1052 
1053 1054 1055 1056 1057 1058 1059 1060 1061 
1062 1063 1064 1065 1066 1067 1068 1069 1070 
1071 1072 1073 1074 1075 1076 1077 1078 1079 
1080 1081 1082 1083 1084 1085 1086 1087 1088 
1089 1090 1091 1092 1093 1094 1095 1096 1097 
1098 1099 1100 1101 1102 1103 1104 1105 1106 
1107 1108 1109 1110 1111 1112 1113 1114 1115 
1116 1117 1118 1119 1120 1121 1122 1123 1124 
1125 1126 1127 1128 1129 1130 1131 1132 1133 
1134 1135 1136 1137 1138 1139 1140 1141 1142 
1143 1144 1145 1146 1147 1148 1149 1150 1151 